LAMMPS (09 Jan 2020)
package omp 0
WARNING: OpenMP support not enabled during compilation; using 1 thread only. (../fix_omp.cpp:125)
units			real
atom_style		charge
read_data		d400000_lmps.dat
  orthogonal box = (-15 -15 -15) to (50 50 50)
  1 by 1 by 1 MPI processor grid
  reading atoms ...
  936 atoms
  read_data CPU = 0.00270581 secs
reset_timestep		0

pair_style              reax/c lmp_control lgvdw yes
pair_coeff              * * ffield C H O N

neighbor		2.5 bin
neigh_modify		delay 0 every 5 check no

fix			qeq all qeq/reax 1 0.0 10.0 1e-6 reax/c
fix			bonds all reax/c/bonds 500 bonds.reaxc
fix			npt all npt temp 300 300 100 iso 1.0 1.0 2000
fix 1 all reax/c/species 10 10 100 species.out cutoff 1 4 0.25
WARNING: Resetting reneighboring criteria for fix reax/c/species (../fix_reaxc_species.cpp:97)


thermo			100
thermo_style            custom step temp pe etotal press vol density
thermo_modify           flush yes

timestep		0.25

dump			1 all custom 1000 dump/dump.reax.npt.* id type xu yu zu
restart			500 restart.npt300 restart.npt300
run			1000000
Last active /omp style is pair_style reax/c/omp
Neighbor list info ...
  update every 100 steps, delay 0 steps, check no
  max neighbors/atom: 2000, page size: 100000
  master list distance cutoff = 12.5
  ghost atom cutoff = 12.5
  binsize = 6.25, bins = 11 11 11
  2 neighbor lists, perpetual/occasional/extra = 2 0 0
  (1) pair reax/c/omp, perpetual
      attributes: half, newton off, ghost, omp
      pair build: half/bin/newtoff/ghost/omp
      stencil: half/ghost/bin/3d/newtoff
      bin: standard
  (2) fix qeq/reax/omp, perpetual, copy from (1)
      attributes: half, newton off, ghost
      pair build: copy
      stencil: none
      bin: none
Per MPI rank memory allocation (min/avg/max) = 58.7 | 58.7 | 58.7 Mbytes
Step Temp PotEng TotEng Press Volume Density 
       0            0   -111416.69   -111416.69   -111.25469       274625  0.038816842 
     100    141.05592   -111796.83    -111403.7    369.46736    274610.46  0.038818898 
     200    168.60222   -111852.67   -111382.77   -393.84393    274576.08  0.038823759 
     300    169.43776   -111831.87   -111359.64    -130.6029    274503.61  0.038834008 
     400    162.99492   -111786.38   -111332.11   -241.36492    274413.76  0.038846724 
     500    168.73746   -111770.17   -111299.89   -154.06906    274278.66  0.038865858 
     600    192.92516   -111804.73   -111267.04     24.43241    274109.52   0.03888984 
     700    183.76208   -111744.22   -111232.06   -58.101141     273913.8  0.038917628 
     800    203.22086   -111761.61   -111195.22    189.28883    273716.53  0.038945676 
     900    197.71704   -111707.87   -111156.82   -145.23505     273513.5  0.038974586 
    1000    208.50454   -111698.87   -111117.75    97.709975    273316.99  0.039002608 
    1100    207.52118   -111655.03   -111076.65    50.330554    273133.54  0.039028804 
    1200    222.20917   -111654.38   -111035.07   -35.214837    272968.43   0.03905241 
    1300    225.86715   -111622.69   -110993.19   -58.634085    272856.57  0.039068421 
    1400    235.52347    -111606.5   -110950.08    3.3669235    272795.84  0.039077119 
    1500     244.1672   -111588.24   -110907.73   -116.57274    272774.12   0.03908023 
    1600    253.95342   -111573.12   -110865.34   -118.23994    272734.23  0.039085945 
    1700    254.32166   -111531.63   -110822.82    120.01183    272715.18  0.039088676 
    1800    265.19435   -111520.66   -110781.55   -20.641453    272762.96   0.03908183 
    1900     275.7522   -111510.22   -110741.68    456.47694    272843.08  0.039070353 
    2000    283.45625   -111492.75   -110702.74    54.404405    272916.83  0.039059795 
    2100    298.78733   -111498.88   -110666.15    84.047386    272978.03  0.039051038 
    2200    289.25461   -111437.44   -110631.27   -258.13576    273067.06  0.039038306 
    2300     288.7467   -111403.88   -110599.12    198.75222    273174.58  0.039022941 
    2400    293.83369   -111388.24   -110569.31    202.27118    273266.93  0.039009753 
    2500    311.50517   -111412.05   -110543.87   -59.899985    273312.75  0.039003213 
    2600    316.74946   -111406.63   -110523.83    135.34458    273349.79  0.038997927 
    2700    320.62523   -111400.06   -110506.46    321.85171    273421.08   0.03898776 
    2800    312.10844   -111363.79   -110493.92   -121.91391    273505.91  0.038975667 
    2900    306.34434   -111341.29   -110487.49    43.137969    273566.02  0.038967103 
    3000    305.46537   -111336.15    -110484.8    14.624748     273579.7  0.038965155 
    3100    307.89361   -111345.04   -110486.92   -353.86607    273599.27  0.038962367 
    3200    308.94106   -111354.57   -110493.53   -8.7552896    273620.11  0.038959401 
    3300    313.20137   -111377.86   -110504.95   -98.571775    273621.08  0.038959263 
    3400    312.86438   -111391.39   -110519.42   -188.93464     273607.3  0.038961224 
    3500    299.57141   -111370.61   -110535.69   -78.429649    273550.06  0.038969377 
    3600    287.72326   -111353.52   -110551.62   -67.097227    273453.99  0.038983067 
    3700    302.98798   -111410.02   -110565.58    295.09186    273321.39   0.03900198 
    3800    291.00805   -111391.88   -110580.82    85.913331    273160.64  0.039024932 
    3900    296.25284   -111420.82   -110595.14    464.97438    272985.98    0.0390499 
    4000    297.34055   -111434.23   -110605.52    8.1946614    272817.45  0.039074023 
    4100    293.14573   -111430.93   -110613.91    43.563017    272618.32  0.039102564 
    4200    289.27786   -111427.51   -110621.28   -96.945187    272383.77  0.039136236 
    4300    284.22772   -111417.59   -110625.43    371.78422    272144.48  0.039170647 
    4400    294.36044   -111447.77   -110627.37     420.6538    271918.92  0.039203139 
    4500    297.67247   -111455.96   -110626.33    542.50533    271710.93  0.039233148 
    4600    296.83508   -111448.94   -110621.65     228.7154    271553.38  0.039255911 
    4700     292.2369   -111428.92   -110614.44    99.239002     271435.9  0.039272902 
    4800    281.83057    -111388.9   -110603.42   -338.85659    271362.63  0.039283505 
    4900    294.05561   -111408.81   -110589.26    245.06575    271321.03  0.039289529 
    5000    306.00398   -111426.66   -110573.81    144.07085    271336.47  0.039287293 
    5100    302.73624   -111401.08   -110557.34    157.79143    271367.37  0.039282819 
    5200    296.03473   -111367.34   -110542.28  -0.43731172    271432.71  0.039273363 
    5300    299.04432   -111361.43   -110527.98   -184.90066    271477.67  0.039266859 
    5400    301.14276   -111356.52   -110517.22   -76.752789    271525.04  0.039260009 
    5500    324.72788   -111415.79   -110510.75   -9.5807284    271603.15  0.039248717 
    5600    314.12143    -111381.9   -110506.42   -129.30766    271690.38  0.039236116 
    5700    316.34978   -111387.31   -110505.62   -314.57292    271709.12  0.039233411 
    5800    307.95637   -111366.16   -110507.87    172.86532    271702.05  0.039234431 
    5900    305.08499   -111363.61   -110513.32   -12.423664     271725.3  0.039231074 
    6000    297.01866   -111346.92   -110519.12   -3.3628153    271820.41  0.039217347 
    6100    300.94072   -111364.53    -110525.8    92.495584    271955.48  0.039197869 
    6200    305.44237   -111384.85   -110533.57    -286.3963    272053.83  0.039183699 
    6300    297.50402   -111371.59   -110542.43    -283.8178    272111.51  0.039175392 
    6400    311.43955    -111419.7    -110551.7    209.15631    272192.82  0.039163691 
    6500    299.96926   -111397.38   -110561.35   -130.70028    272302.22  0.039147956 
    6600    303.81241   -111418.87   -110572.12   -339.95586    272392.73  0.039134949 
    6700    294.33469   -111401.48   -110581.16    316.19163     272448.7  0.039126909 
    6800    296.57038   -111416.19   -110589.63   -353.50209    272497.55  0.039119895 
    6900    281.62732    -111380.6   -110595.68    87.227661    272543.11  0.039113355 
    7000    291.59106   -111413.46   -110600.78   -196.54151    272586.03  0.039107196 
    7100    306.90829   -111459.81   -110604.44    105.56396    272571.95  0.039109217 
    7200    305.11191   -111457.66    -110607.3   -83.605612    272551.35  0.039112173 
    7300    294.07706   -111429.07   -110609.46    422.02965    272568.13  0.039109765 
    7400    285.60111   -111404.04   -110608.05   -145.95184     272617.8  0.039102638 
    7500    288.68666   -111409.36   -110604.77   -168.49657    272661.66  0.039096349 
    7600    295.25756    -111421.4    -110598.5   -185.83891    272672.85  0.039094745 
    7700    304.56355   -111439.57   -110590.74    41.199976    272680.45  0.039093655 
    7800    305.79805   -111435.62   -110583.34   -116.75341    272760.63  0.039082163 
    7900    297.68145   -111405.24   -110575.58    84.002561    272879.31  0.039065165 
    8000    301.98922   -111407.62   -110565.96   -221.47263     273012.4  0.039046122 
    8100    311.91468   -111425.92   -110556.59    199.51936    273120.12  0.039030721 
    8200    309.05973    -111410.2   -110548.83     116.9901    273241.32  0.039013409 
    8300    307.10265   -111398.47   -110542.56    275.93009    273420.62  0.038987825 
    8400    297.19253    -111367.4   -110539.11   -243.25725    273647.78   0.03895546 
    8500     299.5384   -111371.71   -110536.88    184.36223    273923.45  0.038916257 
    8600    304.15604   -111384.57   -110536.87    118.03633    274205.09  0.038876286 
    8700    309.11602   -111401.51   -110539.98    178.89152    274484.41  0.038836724 
    8800    311.51761   -111413.07   -110544.85   -173.44943    274754.24  0.038798583 
    8900    302.57577   -111396.88   -110553.58   -160.49878    274991.95  0.038765045 
    9000    292.35492   -111376.35   -110561.54   -141.97484    275191.77  0.038736898 
    9100    289.90823   -111377.79    -110569.8   -46.325047    275355.72  0.038713834 
    9200    293.19197   -111394.69   -110577.54   -272.85195    275536.27  0.038688465 
    9300    292.45405   -111398.75   -110583.67   -94.944469       275730  0.038661282 
    9400    300.07517   -111424.34   -110588.01     3.132147    275936.08  0.038632408 
    9500    300.11504   -111426.73   -110590.29    138.39987    276125.42  0.038605919 
    9600    299.34391   -111424.41   -110590.12   -80.012803    276262.71  0.038586733 
    9700    288.69607   -111393.91   -110589.29     -98.3505    276301.02  0.038581382 
    9800    303.05368   -111431.76   -110587.13    211.01796    276277.96  0.038584603 
    9900    283.71222   -111375.91   -110585.18   -130.77068    276258.31  0.038587347 
   10000    284.58006   -111373.32   -110580.18    102.57139     276247.2  0.038588899 
   10100    305.75943   -111425.45   -110573.28   -82.377901    276250.95  0.038588376 
   10200    309.25833   -111426.88   -110564.96   -10.887567    276238.99  0.038590046 
   10300     302.5522   -111400.28   -110557.05    348.97068    276227.69  0.038591624 
   10400    298.32044   -111380.31   -110548.88     244.2318    276222.74  0.038592316 
   10500    301.89429   -111382.75   -110541.36   -178.83187    276222.08  0.038592409 
   10600    305.98377    -111387.7   -110534.91    283.00288    276233.81   0.03859077 
   10700    296.92442   -111357.46   -110529.91    199.26737    276280.36  0.038584268 
   10800    301.56394   -111365.68   -110525.21   -63.685699    276315.28  0.038579391 
   10900    301.63835   -111362.15   -110521.46    80.678055    276346.14  0.038575084 
   11000    306.19181   -111369.95   -110516.58   -209.16795    276414.29  0.038565573 
   11100    304.33004   -111361.83   -110513.64   -131.15663    276463.86  0.038558658 
   11200     303.2476   -111358.12   -110512.95   -200.10097    276485.33  0.038555664 
   11300    310.59183   -111379.48   -110513.84     100.5677    276515.93  0.038551397 
   11400    304.11369   -111367.21   -110519.63   -20.821355    276598.64  0.038539869 
   11500    307.40307   -111384.51   -110527.76   -114.54004    276687.76  0.038527455 
   11600    301.61134   -111378.04   -110537.43   -148.20137    276757.91   0.03851769 
   11700    303.75681   -111393.98   -110547.39   -218.58341    276829.74  0.038507695 
   11800    293.77645   -111376.29   -110557.52      329.894    276853.26  0.038504425 
   11900    296.06123   -111391.62   -110566.48    2.7013677    276900.73  0.038497823 
   12000    294.15673   -111393.47   -110573.64   -128.10972    276955.17  0.038490256 
   12100    284.58199   -111371.36   -110578.21   -175.84237    276993.59  0.038484918 
   12200     286.5348   -111379.21   -110580.62    42.991431    277047.47  0.038477433 
   12300    279.81254   -111361.12   -110581.26   -120.27359    277132.15  0.038465675 
   12400    302.58773   -111421.84   -110578.51    287.84918     277207.5   0.03845522 
   12500    296.03849   -111397.29   -110572.21   -194.09884    277273.14  0.038446116 
   12600    299.86746   -111400.88   -110565.13    105.53325    277297.16  0.038442785 
   12700    297.17679   -111384.41   -110556.16    42.423809    277291.04  0.038443635 
   12800    305.97802   -111399.33   -110546.55    9.6147707    277262.78  0.038447553 
   12900    310.07134    -111402.4   -110538.21   -145.93385    277234.91  0.038451418 
   13000    301.59096   -111372.09   -110531.53   -241.54081    277199.08  0.038456387 
   13100    309.19638   -111389.53   -110527.78   -169.42029    277143.18  0.038464145 
   13200    301.50561   -111365.66   -110525.34    10.959975    277055.84  0.038476271 
   13300    305.39355   -111377.18   -110526.03    326.93497    276975.07  0.038487491 
   13400    315.46949   -111408.18   -110528.95   -62.142653    276901.43  0.038497726 
   13500    299.92186   -111371.05   -110535.15   -109.22297    276822.13  0.038508755 
   13600    309.05365   -111405.62   -110544.27    453.87314       276740  0.038520183 
   13700    295.78355   -111381.07   -110556.71   -335.07236    276659.09  0.038531448 
   13800    300.53669    -111406.6   -110568.99    12.005527    276599.71   0.03853972 
   13900    295.48598   -111405.36   -110581.83     168.8763    276548.49  0.038546858 
   14000    293.44336   -111409.81   -110591.97     128.3932    276517.58  0.038551167 
   14100    291.70339   -111411.97   -110598.97    26.346686    276485.84  0.038555592 
   14200     290.8422   -111413.41   -110602.81   -158.21274    276445.72  0.038561188 
   14300    296.83423   -111430.66   -110603.37    152.91482    276397.67  0.038567892 
   14400      293.687   -111421.43    -110602.9    231.56167    276380.06  0.038570349 
   14500    287.16526   -111400.53   -110600.18    61.822384    276403.77  0.038567041 
   14600     295.3443   -111417.76   -110594.61    344.79572    276452.93  0.038560183 
   14700    294.48858   -111409.25    -110588.5   -25.039903    276497.58  0.038553955 
   14800    293.03619   -111398.51    -110581.8    410.04487    276536.01  0.038548597 
   14900    307.99666   -111433.95   -110575.55   -361.71136    276565.12  0.038544541 
   15000    290.60792   -111380.42   -110570.48    46.337466    276579.96  0.038542472 
   15100    302.84669   -111410.16   -110566.11    21.183231    276596.28  0.038540198 
   15200    298.78196   -111395.52    -110562.8    13.249502    276592.54   0.03854072 
   15300    299.39838   -111393.88   -110559.44   -182.14901    276523.28  0.038550372 
   15400    288.59226   -111360.58   -110556.26    58.361675    276431.21  0.038563212 
   15500     292.1051   -111366.81   -110552.69   -36.046836    276316.24  0.038579258 
   15600    301.03533   -111389.32   -110550.32    -385.2752    276148.75  0.038602657 
   15700    304.62549    -111397.8   -110548.79   -8.4622615    275950.32  0.038630415 
   15800    299.37017    -111382.1   -110547.74    107.54111    275756.61  0.038657552 
   15900    301.13456   -111387.93   -110548.65   -325.90902    275575.01  0.038683026 
   16000    303.22109    -111397.5   -110552.41    437.55922    275341.06  0.038715895 
   16100    297.54597   -111384.76   -110555.48    -78.78134    275127.43  0.038745957 
   16200    297.28466   -111388.74   -110560.19   -82.279979    274931.74  0.038773534 
   16300    294.24267   -111387.43   -110567.36   -166.40756    274737.47  0.038800951 
   16400    295.19461    -111401.9   -110579.18    77.459965    274556.11  0.038826582 
   16500    289.79551   -111400.86   -110593.18   -76.853261    274404.99  0.038847965 
   16600    282.69912    -111394.3    -110606.4    180.26286    274264.07  0.038867926 
   16700    300.06557    -111451.2    -110614.9    222.48415    274102.64  0.038890816 
   16800    280.42206   -111402.05   -110620.49    131.74484    273964.69  0.038910399 
   16900    285.63311   -111417.37    -110621.3    103.31193    273864.25   0.03892467 
   17000    287.02926   -111418.18   -110618.21   -182.10743     273791.2  0.038935055 
   17100    290.25532   -111420.93   -110611.97    321.52867    273718.92  0.038945336 
   17200    294.79621   -111423.57   -110601.96    380.99644    273640.69  0.038956471 
   17300     301.9137   -111430.19   -110588.74      59.5732    273555.16   0.03896865 
   17400    302.30816   -111417.05    -110574.5   -305.19389    273485.83  0.038978529 
   17500    300.99456   -111402.13   -110563.24    207.69954    273440.16  0.038985039 
   17600    307.04136   -111409.91   -110554.17   -165.98533    273395.96  0.038991341 
   17700    299.59325   -111382.96   -110547.97   -175.95351     273328.1  0.039001023 
   17800    301.70698    -111385.5   -110544.63   -205.93133     273251.9  0.039011898 
   17900    314.57126   -111419.87   -110543.14    45.948641    273173.26   0.03902313 
   18000    303.69148   -111389.88   -110543.47   -21.236544    273131.02  0.039029164 
   18100     303.3696   -111391.83   -110546.32   -62.439735    273091.94  0.039034749 
   18200    294.41807   -111370.03   -110549.47   -1.1504565    273040.55  0.039042097 
   18300    304.33182   -111400.75   -110552.56   -89.099654    272962.29  0.039053289 
   18400    304.40335   -111404.06   -110555.67    255.60269    272862.43  0.039067582 
   18500    309.20385    -111420.2   -110558.43   -157.30746    272697.32  0.039091236 
   18600    296.76311   -111388.76   -110561.67   -280.89592    272467.65  0.039124188 
   18700       306.58   -111419.55    -110565.1    -27.60448    272200.43  0.039162596 
   18800    299.08965    -111403.3   -110569.72    80.023873    271904.01   0.03920529 
   18900    303.34273   -111423.61   -110578.18   -166.38359    271614.79  0.039247036 
   19000    303.15007   -111434.99   -110590.09   -286.97293    271339.83  0.039286807 
   19100     289.5249   -111411.61   -110604.69    188.16716    271061.87  0.039327094 
   19200    298.74778   -111451.88   -110619.25   -191.43799    270752.42  0.039372041 
   19300    288.15037   -111434.47   -110631.38   -23.282744    270437.11  0.039417945 
   19400    283.19999   -111428.57   -110639.27   -138.94953    270138.42   0.03946153 
   19500    283.44575   -111433.45   -110643.47   -117.35862    269821.81  0.039507835 
   19600    281.91074   -111428.03   -110642.33     267.9135    269463.24  0.039560406 
   19700     294.5534   -111457.84    -110636.9    176.78135    269117.14  0.039611284 
   19800    294.89246   -111451.06   -110629.17    39.716588    268852.09  0.039650335 
   19900    286.64175   -111419.91   -110621.02    94.338482    268680.87  0.039675602 
   20000    295.92632   -111436.83   -110612.06   -144.31673    268531.15  0.039697724 
   20100    299.75691   -111439.49   -110604.05   -265.39452    268358.06  0.039723329 
   20200    287.70764   -111399.28   -110597.42   -3.1020733    268143.94  0.039755048 
   20300    285.46246   -111386.64   -110591.04    38.228796    267912.64   0.03978937 
   20400    298.66451   -111418.16   -110585.77    161.24839    267674.59  0.039824756 
   20500    297.19727   -111407.98   -110579.68   -57.480064    267462.43  0.039856347 
   20600     314.6409   -111451.71   -110574.79    334.95816    267287.06  0.039882497 
   20700    303.29687   -111415.93   -110570.63   -190.43781     267165.5  0.039900644 
   20800    304.89419   -111415.89   -110566.13   -229.66235    267057.76  0.039916741 
   20900    305.96547   -111416.14   -110563.39     338.3837    266957.39  0.039931748 
   21000    315.62933   -111438.41   -110558.73    190.39027     266839.9  0.039949331 
   21100    299.37715   -111390.38      -110556   -114.91876    266733.26  0.039965303 
   21200    292.05403   -111369.18   -110555.21    180.00814    266677.05  0.039973725 
   21300    294.10537   -111373.55   -110553.86    -192.5825    266663.79  0.039975713 
   21400    304.67285    -111401.8   -110552.66   -51.248284    266594.95  0.039986036 
   21500    306.71835   -111406.41   -110551.57    141.47918    266493.03  0.040001329 
   21600    298.42218    -111382.6   -110550.88    90.047102    266382.27  0.040017962 
   21700    294.92058    -111372.5   -110550.54    175.24982    266265.66  0.040035488 
   21800    302.45222   -111392.93   -110549.97   -2.2546542    266137.42  0.040054778 
   21900    299.69605   -111385.37    -110550.1   -61.871032    266023.92  0.040071868 
   22000    295.67975   -111374.75   -110550.68    183.69573    265931.12  0.040085851 
   22100    291.39352      -111364   -110551.87   -73.505244    265855.36  0.040097275 
   22200    305.37171   -111405.64   -110554.55   -19.996272    265741.38  0.040114473 
   22300    297.81501   -111389.98   -110559.96    -198.1331    265567.21  0.040140782 
   22400    301.20929   -111404.94   -110565.45   -267.88504     265337.2  0.040175579 
   22500     301.7338   -111412.33   -110571.38    282.50679    265078.77  0.040214745 
   22600    305.39243   -111428.06   -110576.91   -102.49087     264834.1  0.040251899 
   22700    288.13648    -111386.6   -110583.55   -253.65516    264563.45  0.040293077 
   22800    295.05255    -111412.6   -110590.27    156.62002    264246.45  0.040341413 
   22900    298.00997   -111426.61   -110596.04   -150.35598     263886.5  0.040396441 
   23000     297.2964    -111429.4   -110600.82    45.241527    263531.59  0.040450845 
   23100    288.10433   -111407.46    -110604.5    -470.1937    263204.62  0.040501095 
   23200    296.39453   -111433.26   -110607.19   -231.57831    262865.18  0.040553395 
   23300    281.35772   -111392.54   -110608.38     -84.2329       262499  0.040609966 
   23400    295.31806   -111430.86   -110607.79    96.168126    262113.82  0.040669642 
   23500    296.87527   -111430.19   -110602.79    234.31262    261747.28  0.040726594 
   23600    292.62014   -111409.86   -110594.31    208.64322    261408.49  0.040779377 
   23700    293.41092   -111397.36    -110579.6   -210.15741    261069.53  0.040832323 
   23800    314.69027   -111439.55   -110562.49    18.316586    260740.29  0.040883883 
   23900    308.81058   -111408.23   -110547.56   -166.79891    260394.93  0.040938107 
   24000    308.46846   -111397.96   -110538.24   -48.006574    260055.82  0.040991489 
   24100    314.65468   -111411.76    -110534.8   -331.90085    259731.78  0.041042631 
   24200    310.17592   -111400.56   -110536.09    46.622157    259424.64  0.041091221 
   24300    304.53555   -111388.74   -110539.98    289.05044    259162.86  0.041132727 
   24400    307.12028   -111402.34   -110546.38    309.88356    258947.13  0.041166996 
   24500    323.71266   -111457.58   -110555.37   -350.00398    258786.81  0.041192499 
   24600    298.60124   -111398.11   -110565.89    464.26431     258651.5  0.041214048 
   24700    302.52285   -111420.08   -110576.93    144.39449    258550.49  0.041230149 
   24800    295.13745   -111410.16    -110587.6    24.253661    258453.98  0.041245546 
   24900    294.29538   -111415.61   -110595.39   -18.477321    258361.56    0.0412603 
   25000    297.87404   -111429.55   -110599.36    188.77924    258269.78  0.041274962 
   25100    305.34985   -111451.86   -110600.83   -267.33155    258229.14  0.041281458 
   25200    297.81971   -111432.26   -110602.22     51.75544    258204.98  0.041285321 
   25300    290.53734   -111410.82   -110601.08     -119.481    258195.51  0.041286836 
   25400    293.42849   -111415.43   -110597.63   -290.41869     258187.8  0.041288068 
   25500     287.1025   -111393.67    -110593.5    102.37915     258196.3  0.041286708 
   25600    305.60565    -111440.6   -110588.85    48.721002    258165.81  0.041291584 
   25700    299.92092    -111418.9   -110583.01   -370.41551    258085.46   0.04130444 
   25800    294.71807   -111396.52   -110575.13   -3.0299967    257984.77  0.041320561 
   25900     299.8066   -111403.27    -110567.7    323.14777    257869.85  0.041338975 
   26000    298.02533   -111392.26   -110561.65    114.60774    257747.78  0.041358553 
   26100    293.17666   -111374.37   -110557.27   -13.539473    257574.66  0.041386351 
   26200    294.04569   -111371.66   -110552.14    138.24863    257337.92  0.041424426 
   26300    309.86832   -111412.15   -110548.53    115.84512    257068.16  0.041467895 
   26400    291.89655   -111357.93    -110544.4   -65.495546    256818.02  0.041508284 
   26500    298.08492   -111371.47   -110540.69    -290.0463    256585.48  0.041545902 
   26600    297.07684    -111364.4   -110536.43    440.10617    256363.91  0.041581809 
   26700    307.19956    -111387.7   -110531.51   -598.79429    256190.62  0.041609935 
   26800    305.47498   -111375.27   -110523.89   -117.31197     256009.8  0.041639326 
   26900    315.69744   -111391.98   -110512.12    397.39263    255796.52  0.041674044 
   27000    313.93604   -111369.19   -110494.23    84.391456    255532.19  0.041717152 
   27100    312.36353   -111346.53   -110475.96    60.292383    255248.97  0.041763441 
   27200    312.00182   -111333.59   -110464.02    56.296301    254938.11  0.041814365 
   27300    323.65454   -111359.58   -110457.53    285.13068    254594.81  0.041870749 
   27400    317.97973   -111343.68   -110457.46    75.981833    254249.11  0.041927681 
   27500    317.22292    -111346.5   -110462.38    29.250552    253915.58  0.041982754 
   27600    314.21648   -111350.46   -110474.72   -147.85094    253594.28  0.042035945 
   27700    312.81476   -111364.12   -110492.28   -205.72906    253246.47  0.042093678 
   27800    306.96169    -111365.8   -110510.28   -10.608981    252886.84   0.04215354 
   27900    307.28844   -111380.92   -110524.49   -92.989491    252512.01  0.042216112 
   28000    300.25778   -111373.57   -110536.73    295.56925    252109.46  0.042283519 
   28100    316.33209   -111428.77   -110547.13    78.212209    251713.54  0.042350028 
   28200    307.31768   -111412.83   -110556.31     146.2427    251358.92  0.042409775 
   28300    294.59056   -111386.36   -110565.32   -124.63889    251023.32  0.042466474 
   28400    298.35408   -111402.69   -110571.16    139.70787    250687.06  0.042523436 
   28500    294.26989   -111396.28   -110576.13    214.16581    250331.04  0.042583913 
   28600    295.10008   -111400.56    -110578.1   -280.48051    249973.54  0.042644814 
   28700    301.48937   -111420.09   -110579.82   -23.712831    249618.09   0.04270554 
   28800    304.21318   -111428.33   -110580.47   -200.67676    249261.89  0.042766567 
   28900    297.14813   -111408.17      -110580   -352.41614    248910.48  0.042826944 
   29000    292.38346   -111392.24   -110577.35    67.123882    248581.95  0.042883546 
   29100    287.05545   -111372.21   -110572.17   -231.16498    248264.52  0.042938376 
   29200    300.32845   -111402.06   -110565.03    152.26728    247930.46  0.042996232 
   29300    295.65895   -111379.65   -110555.63   -318.33867    247600.31  0.043053562 
   29400    302.36418   -111386.12   -110543.41     265.4339    247266.93  0.043111609 
   29500       317.02   -111414.16   -110530.61    177.99241    246943.18   0.04316813 
   29600     313.8217   -111394.17   -110519.53   -65.610324    246609.05  0.043226618 
   29700    297.60936   -111341.22   -110511.77    170.88212    246256.84  0.043288444 
   29800    310.18308   -111371.61   -110507.11   -144.43373    245895.58  0.043352042 
   29900    312.76774   -111376.89   -110505.19   -101.07518    245522.06  0.043417993 
   30000    308.32468   -111366.28   -110506.96    256.96703    245159.46  0.043482212 
   30100    303.76362   -111358.55   -110511.94     -59.3367    244787.62  0.043548261 
   30200     305.0857   -111371.26   -110520.97    1.8045382    244357.81  0.043624861 
   30300    306.07017   -111387.64   -110534.61   -104.22099    243947.94  0.043698156 
   30400    302.56988   -111398.31   -110555.03    236.70203    243591.47  0.043762105 
   30500    298.69694   -111408.66   -110576.17    154.83604    243285.35  0.043817169 
   30600    305.46804   -111440.02   -110588.67      90.5755    243002.03  0.043868256 
   30700    298.33413   -111426.56   -110595.09    84.923605    242742.69  0.043915124 
   30800    297.79766   -111426.99   -110597.01    75.591478    242479.64  0.043962765 
   30900    291.69196   -111409.49   -110596.53    16.037506    242231.48  0.044007803 
   31000    297.14127   -111422.74   -110594.59    24.294039    242018.67    0.0440465 
   31100     293.5824   -111408.57   -110590.34   -180.16418    241836.22   0.04407973 
   31200    298.02308   -111417.21    -110586.6    392.19493    241654.96  0.044112793 
   31300    302.64766   -111427.18   -110583.68    79.932867    241474.57  0.044145747 
   31400    305.78812   -111433.72   -110581.47     240.6684    241275.44  0.044182183 
   31500    285.50304   -111374.53   -110578.82    11.320824    241066.42  0.044220491 
   31600    305.73033   -111427.59    -110575.5   -113.30518    240888.97  0.044253065 
   31700     303.3556   -111416.58   -110571.11    185.39873    240776.38   0.04427376 
   31800    307.41861   -111423.37   -110566.58    240.53011    240689.44  0.044289751 
   31900    295.04027   -111383.31   -110561.01   -406.50224    240603.85  0.044305506 
   32000    312.26708   -111425.09   -110554.78   -41.527992     240470.9  0.044330002 
   32100    310.46365   -111413.09   -110547.81   -268.80148    240336.18   0.04435485 
   32200     301.6376   -111379.92   -110539.24   -103.77288    240174.47  0.044384715 
   32300    305.58866   -111383.06   -110531.36    124.09749    240002.13  0.044416586 
   32400    315.54555   -111402.28   -110522.84    19.983658    239878.41  0.044439494 
   32500    307.30395   -111373.52   -110517.05     204.7338    239791.41  0.044455618 
   32600    309.14266   -111374.71   -110513.11    132.53919    239704.34  0.044471766 
   32700    312.61346   -111383.47    -110512.2   -346.90518       239582  0.044494474 
   32800    304.83887   -111362.58   -110512.98    82.653983    239424.96  0.044523659 
   32900    294.28269   -111337.01   -110516.83     56.62862    239276.82  0.044551225 
   33000    308.73154   -111382.96    -110522.5   -90.972617    239113.96  0.044581568 
   33100    299.17075   -111367.77   -110533.96    116.54423    238944.95  0.044613103 
   33200    306.76795   -111404.23   -110549.25    185.99592    238756.77  0.044648264 
   33300    300.92984   -111403.45   -110564.74   -13.449115    238567.36  0.044683712 
   33400    300.13277   -111413.57   -110577.08    71.120923    238390.13  0.044716932 
   33500     296.5575   -111413.49   -110586.96   -335.08184    238213.22  0.044750142 
   33600    296.22547   -111418.68   -110593.09    -281.6087    238011.06   0.04478815 
   33700    293.70474   -111415.62   -110597.05   -15.352083    237803.27  0.044827286 
   33800    296.32154   -111424.67    -110598.8   -257.95631    237603.34  0.044865007 
   33900    303.86509   -111444.47   -110597.58   -136.22501    237405.81  0.044902335 
   34000    295.67159   -111420.31   -110596.26   -403.59065    237220.17  0.044937474 
   34100    296.16209   -111417.69   -110592.27   -23.131308     237024.4  0.044974591 
   34200    292.08196   -111402.12   -110588.07   -177.07474    236818.54  0.045013685 
   34300    296.84769    -111408.2   -110580.87   -175.35904    236564.89  0.045061951 
   34400    306.65564   -111425.57   -110570.91   -300.89943    236284.98  0.045115333 
   34500      304.075   -111405.73   -110558.25    30.313411    236026.21  0.045164795 
   34600    304.97297    -111394.6   -110544.62    166.73872    235805.53  0.045207062 
   34700    309.03232    -111392.8   -110531.51    261.35306    235610.38  0.045244506 
   34800     304.4435   -111369.14   -110520.64   -143.61085    235451.29  0.045275077 
   34900    314.48291   -111387.78    -110511.3   -161.81393    235352.33  0.045294114 
   35000    320.13053   -111400.16   -110507.94   -85.601802    235305.01  0.045303224 
   35100    312.64999   -111381.73   -110510.35    65.206784    235274.38  0.045309121 
   35200    330.57487   -111438.57   -110517.24    469.33755    235252.49  0.045313338 
   35300    306.29747   -111380.29   -110526.62   -105.26824    235250.48  0.045313723 
   35400    297.75567    -111366.8   -110536.94    47.965504    235273.63  0.045309265 
   35500    300.93532   -111383.82    -110545.1   -342.56682    235334.87  0.045297475 
   35600    313.64365   -111424.81   -110550.67    136.18451    235371.18  0.045290486 
   35700    305.76835   -111406.84   -110554.64    384.16169    235372.12  0.045290305 
   35800     304.4815   -111407.49   -110558.88    340.55577    235347.17  0.045295108 
   35900    293.73632   -111381.89   -110563.23   -65.000759    235290.75  0.045305968 
   36000    295.45466    -111390.2   -110566.75     214.3498    235183.87  0.045326559 
   36100     298.6719   -111401.06   -110568.65     59.25595    235051.98  0.045351991 
   36200    302.45537   -111415.41   -110572.45    455.70564    234923.65  0.045376766 
   36300    294.51789   -111395.79   -110574.95    308.80035    234785.86  0.045403396 
   36400    294.29192   -111397.04   -110576.84    234.37305    234622.12  0.045435082 
   36500    295.35327   -111400.84   -110577.67    305.11149    234428.68  0.045472573 
   36600    296.89529   -111406.31   -110578.85   -162.28963    234216.34  0.045513799 
   36700    297.43579   -111410.54   -110581.57    14.716485    234014.02  0.045553149 
   36800    297.63824   -111414.92   -110585.39    411.99143    233814.95  0.045591933 
   36900    293.93139   -111408.26   -110589.05   -403.12818    233623.51  0.045629292 
   37000    294.41683   -111412.09   -110591.54    -4.557724    233416.78  0.045669705 
   37100    300.00136   -111430.61   -110594.49   -32.721603    233221.26  0.045707991 
   37200    299.31422   -111431.04   -110596.83    49.720967    233007.13  0.045749997 
   37300    296.06913    -111423.9   -110598.74   -537.07954    232798.94  0.045790911 
   37400    295.28636   -111422.85   -110599.87   -400.53756    232589.28  0.045832186 
   37500    297.38762   -111428.05   -110599.21   -156.06123    232389.52  0.045871583 
   37600    297.30616   -111426.29   -110597.68   -25.274689    232215.33  0.045905994 
   37700    294.83588   -111413.89   -110592.16   -83.235881    232056.04  0.045937504 
   37800    287.47258   -111385.05   -110583.84   -223.00514    231913.94  0.045965652 
   37900    303.29252   -111418.48   -110573.19   -32.588374    231806.91  0.045986875 
   38000    300.48572   -111397.29   -110559.82   -233.58668    231711.65   0.04600578 
   38100    307.63254   -111404.93   -110547.54   -225.95559    231630.03  0.046021993 
   38200    301.68929   -111378.56   -110537.74   -161.71689    231558.03  0.046036301 
   38300    317.44039   -111416.74   -110532.02   -120.50106    231476.45  0.046052526 
   38400    298.80906   -111362.87   -110530.07    235.70477    231334.05  0.046080875 
   38500    311.93705   -111399.86   -110530.47     271.8709    231146.32  0.046118301 
   38600    312.38736   -111405.09   -110534.44    74.017937     230936.6  0.046160182 
   38700    302.63063   -111385.73   -110542.28    123.18289    230732.26  0.046201061 
   38800    300.42016   -111389.89    -110552.6    17.230367    230571.38  0.046233298 
   38900    294.84302   -111385.87   -110564.12    53.444682    230425.87  0.046262494 
   39000    301.74077   -111416.85   -110575.88   -327.82244    230295.37   0.04628871 
   39100    296.10526   -111410.84   -110585.57    423.56925    230159.65  0.046316003 
   39200    281.11124   -111376.18   -110592.71   -79.714016    230016.55   0.04634482 
   39300    294.74836   -111417.84   -110596.36    132.59692     229823.4  0.046383769 
   39400    284.05186   -111389.96   -110598.29   -21.016567    229602.88  0.046428318 
   39500    300.79691   -111436.45   -110598.11    176.91431    229393.68  0.046470659 
   39600    301.78292   -111437.75   -110596.66   -170.35878    229214.62  0.046506961 
   39700    290.64419   -111403.42   -110593.38   -91.640164     229035.8  0.046543272 
   39800    297.88971    -111420.6   -110590.36   -402.32383    228864.17  0.046578174 
   39900    287.08173   -111387.42   -110587.31   -227.66198    228692.16  0.046613209 
   40000    286.43805    -111381.4   -110583.08    168.07096    228515.39  0.046649266 
   40100    307.52912   -111435.41   -110578.31    119.65182    228326.08  0.046687945 
   40200    305.48514   -111425.43   -110574.02   -61.212923    228152.45  0.046723476 
   40300    310.22106   -111434.43   -110569.83    17.791862    228002.54  0.046754195 
   40400     288.7093   -111369.66   -110565.01     85.47538    227881.67  0.046778995 
   40500     308.9309    -111419.5   -110558.49   -357.40724    227780.01  0.046799873 
   40600    305.54001   -111403.37   -110551.81   -292.51199    227673.05  0.046821858 
   40700    300.83083   -111383.05   -110544.62    174.01166     227547.7  0.046847652 
   40800    308.18593    -111396.1   -110537.17   -430.46561    227443.31  0.046869154 
   40900    304.46777   -111379.85   -110531.28     235.6177     227339.2  0.046890618 
   41000    312.87096    -111396.7   -110524.71   -274.29442    227250.86  0.046908845 
   41100    307.40316   -111376.15    -110519.4     -146.322    227168.08  0.046925938 
   41200    301.36842   -111356.61   -110516.68    108.66862    227090.14  0.046942045 
   41300    305.02344   -111365.28   -110515.16   -152.20525    226979.97  0.046964828 
   41400    323.03867   -111416.48   -110516.15    -239.1087    226855.25  0.046990649 
   41500    302.30407   -111363.73    -110521.2   -260.87257    226743.52  0.047013804 
   41600    306.81458   -111386.44   -110531.33    176.58986    226685.26  0.047025886 
   41700    311.95784   -111415.66   -110546.22    371.74273     226674.4   0.04702814 
   41800     296.9236   -111390.14    -110562.6    -518.0251     226668.7  0.047029323 
   41900    301.19608   -111415.78   -110576.33   -50.244697    226612.93  0.047040896 
   42000    300.14794   -111423.52   -110586.99    257.82031    226515.73  0.047061082 
   42100    292.45665   -111409.22   -110594.12     172.1155    226400.24  0.047085088 
   42200    297.53773   -111429.33   -110600.07    324.73312     226254.9  0.047115334 
   42300    294.67237   -111424.83   -110603.56   -269.70729    226133.38  0.047140653 
   42400    300.54231   -111444.34   -110606.71    477.58935    226032.97  0.047161595 
   42500    292.79815   -111424.27   -110608.22   -62.302447    225957.53   0.04717734 
   42600    293.68971   -111425.74   -110607.21    481.29367    225873.85  0.047194819 
   42700    298.50156   -111437.66   -110605.72   -112.08013    225794.43  0.047211419 
   42800    300.06207   -111439.25   -110602.96    377.85324    225714.21  0.047228198 
   42900    295.11531   -111417.85   -110595.35   -137.41361    225646.52  0.047242365 
   43000     297.6773    -111412.8   -110583.16    446.21647    225584.65  0.047255322 
   43100    301.12276   -111406.18   -110566.94   -46.828103    225543.07  0.047264033 
   43200      302.672   -111394.11   -110550.54    8.5003414    225521.58  0.047268538 
   43300    290.90499   -111349.12   -110538.35   -64.014972    225512.07   0.04727053 
   43400    311.45796    -111398.1   -110530.05   -512.26048    225511.36   0.04727068 
   43500    303.44675   -111372.04   -110526.32   -196.43046    225520.92  0.047268676 
   43600    304.40252   -111373.74   -110525.35   -29.946315    225506.67  0.047271664 
   43700    299.57113   -111360.63   -110525.71   -702.24409    225470.64  0.047279216 
   43800    308.20158    -111387.1   -110528.13    36.638267    225423.68  0.047289065 
   43900    310.51167   -111398.27   -110532.86     121.6842    225389.06  0.047296329 
   44000    298.81932      -111371   -110538.17    17.851501    225359.21  0.047302594 
   44100     304.7878   -111393.78   -110544.32   -594.15222    225292.17   0.04731667 
   44200    299.42937   -111386.88   -110552.35   -162.29809    225181.61  0.047339902 
   44300    293.37944   -111376.91   -110559.24   -90.150818     225084.7  0.047360283 
   44400    296.42508   -111390.04   -110563.89    35.933103    225002.07  0.047377676 
   44500     302.8301   -111411.41   -110567.41    70.293439     224881.4  0.047403099 
   44600    296.11395   -111394.44   -110569.15   -277.91924    224714.52  0.047438302 
   44700    292.40929   -111385.33   -110570.37   -311.00599     224522.2  0.047478936 
   44800    300.26144   -111407.17   -110570.33    2.0461546    224329.48  0.047519725 
   44900    295.73364   -111392.57   -110568.34    266.57354    224148.98  0.047557992 
   45000     301.2909   -111402.13   -110562.42   -60.350226    223971.29  0.047595723 
   45100    302.73052   -111395.11   -110551.38   -49.231052     223804.8   0.04763113 
   45200    310.51291   -111395.92   -110530.51   -534.76252    223674.61  0.047658854 
   45300    312.70175   -111378.31   -110506.79    124.32132    223572.63  0.047680591 
   45400    326.22086   -111399.95   -110490.76   -160.24418    223507.07  0.047694579 
   45500    312.79376    -111354.9   -110483.12   -126.52682    223469.53  0.047702591 
   45600    319.51744   -111373.76   -110483.25    271.01066    223446.05  0.047707602 
   45700    315.42684   -111367.43   -110488.31    59.541897    223440.02   0.04770889 
   45800    304.54078   -111347.07    -110498.3     83.96121    223454.13  0.047705878 
   45900    307.94845   -111369.52   -110511.25   -228.48706    223467.91  0.047702935 
   46000    312.36112   -111394.85   -110524.29   -190.68972    223469.18  0.047702664 
   46100    301.85809   -111379.67   -110538.37   -47.821807    223469.51  0.047702594 
   46200    308.30803   -111409.12   -110549.85    592.53446    223492.75  0.047697634 
   46300    298.46093   -111389.93    -110558.1   -383.40979    223523.93   0.04769098 
   46400    294.30247   -111385.25   -110565.01   -77.821627    223530.39  0.047689601 
   46500    289.76346   -111378.46   -110570.88     342.7981       223501  0.047695873 
   46600    303.39147   -111420.52   -110574.95   -154.50359    223446.19  0.047707572 
   46700    296.13842   -111405.46   -110580.11    56.009594    223407.07  0.047715927 
   46800    298.55776   -111415.73   -110583.64    -163.0447    223392.61  0.047719015 
   46900    287.89345   -111388.65   -110586.28    293.75619    223363.41  0.047725254 
   47000    306.58178      -111442   -110587.53   -29.395783    223307.37  0.047737231 
   47100    299.19152   -111422.69   -110588.83     240.9659    223249.04  0.047749703 
   47200    297.27781    -111416.3   -110587.77   -33.634758    223201.97  0.047759773 
   47300    291.03313   -111396.85   -110585.72   -22.779134     223128.2  0.047775564 
   47400    296.11278   -111406.89    -110581.6     61.91472     223052.9  0.047791691 
   47500    291.70748   -111388.05   -110575.04    101.26461    222982.78  0.047806721 
   47600    294.80168   -111385.94   -110564.32   -232.24907    222889.18  0.047826797 
   47700    291.15932   -111359.42   -110547.94   -294.68026    222770.31  0.047852316 
   47800    311.07605   -111398.78    -110531.8    243.64226     222617.7  0.047885119 
   47900    297.56003   -111349.24   -110519.92    107.28532    222444.79  0.047922341 
   48000    309.38915   -111374.33   -110512.04   -151.00111    222292.11  0.047955256 
   48100     309.9282   -111372.89    -110509.1     314.2897    222170.03  0.047981609 
   48200    320.46408   -111403.94   -110510.79    -182.2491    222090.92  0.047998699 
   48300    313.70584   -111390.77   -110516.46   -25.908151    222036.02  0.048010568 
   48400    312.26789   -111397.05   -110526.74    87.407682    222017.28   0.04801462 
   48500    304.53823    -111388.3   -110539.53     228.8242    222005.14  0.048017245 
   48600    305.71874   -111404.98   -110552.93   -333.94999    221973.68  0.048024052 
   48700    303.00612   -111409.27   -110564.77   -14.233065     221940.1  0.048031318 
   48800    291.68585    -111386.1   -110573.16     318.3284    221935.69  0.048032272 
   48900    298.55823    -111409.9    -110577.8   -65.174856    221962.99  0.048026365 
   49000    299.68298   -111415.49   -110580.25   -57.630159    221999.16  0.048018539 
   49100    299.56263   -111416.64   -110581.74    292.45729    222026.64  0.048012595 
   49200    297.88018   -111412.73   -110582.52   -97.899442    222057.98  0.048005821 
   49300    292.08599   -111396.15   -110582.09    22.397231    222109.13  0.047994764 
   49400    296.26487    -111405.6   -110579.89   -213.84012    222161.63  0.047983423 
   49500    293.82936    -111396.8   -110577.88    573.73368    222204.55  0.047974154 
   49600    304.01349   -111421.51   -110574.21    131.66164    222233.49  0.047967907 
   49700    309.76176   -111432.29   -110568.96   -230.60101    222260.05  0.047962174 
   49800    297.86677   -111395.99   -110565.82    294.23571    222284.67  0.047956863 
   49900    305.58546   -111412.63   -110560.95    319.05839    222298.67  0.047953842 
   50000    299.72474   -111389.84   -110554.49    183.87986    222304.31  0.047952625 
   50100    313.97339   -111421.29   -110546.23    38.963322    222311.33  0.047951111 
   50200    307.20723   -111392.53   -110536.32    376.37569    222317.12  0.047949862 
   50300    316.32819   -111405.64   -110524.02   -218.07689    222317.08   0.04794987 
   50400    310.37195   -111377.07   -110512.05   -147.25115    222276.44  0.047958638 
   50500    312.67803   -111374.41   -110502.96    12.634356    222210.87  0.047972789 
   50600    320.72764   -111391.16   -110497.27   -57.428469    222126.84  0.047990938 
   50700    304.88412   -111346.85   -110497.12    251.94064    222048.45   0.04800788 
   50800    309.20689   -111362.47    -110500.7   -162.93674    221960.33  0.048026939 
   50900    302.48504   -111354.25   -110511.21   -134.22279    221845.87  0.048051719 
   51000    315.03311   -111405.29   -110527.27     160.6374    221714.25  0.048080244 
   51100     300.6903   -111384.15   -110546.11    320.05129    221553.63  0.048115101 
   51200    302.28761   -111403.39   -110560.89   -173.76699    221373.92  0.048154161 
   51300    292.78933   -111385.84   -110569.82   -242.83803    221174.49  0.048197581 
   51400    291.33448    -111386.5   -110574.54    278.41483     221003.1  0.048234958 
   51500    289.48735   -111383.17   -110576.35   -14.983132    220854.01  0.048267521 
   51600    307.29015   -111434.09   -110577.66    80.399009     220732.2  0.048294157 
   51700    292.88845   -111394.59   -110578.29   -214.35433    220590.63  0.048325149 
   51800    299.66433   -111412.68    -110577.5    353.27632    220411.08  0.048364517 
   51900    303.84305   -111422.52   -110575.69    296.84389    220244.55  0.048401085 
   52000    299.08974      -111407   -110573.42   -425.65606    220117.92   0.04842893 
   52100    294.79539   -111392.32   -110570.71    337.49051    219979.86  0.048459324 
   52200    297.75768    -111395.9   -110566.03   -8.3301698    219832.53    0.0484918 
   52300    295.51203   -111382.64   -110559.03    157.50704    219711.65  0.048518481 
   52400    305.26019   -111403.74   -110552.96     320.3972    219637.44  0.048534874 
   52500      302.555   -111391.63   -110548.39   -330.54576    219590.55  0.048545238 
   52600    305.16972   -111395.53   -110545.01    48.877428    219507.27  0.048563655 
   52700    305.86403   -111393.65   -110541.19   -268.18591    219394.34  0.048588652 
   52800    309.02876   -111399.23   -110537.95   -44.744378    219256.16  0.048619274 
   52900    314.06822   -111410.21   -110534.88   -87.785919    219126.13  0.048648126 
   53000    301.79073   -111375.42   -110534.31   -296.44236    219000.32  0.048676073 
   53100     300.3467   -111372.41   -110535.33    102.11572    218874.04  0.048704155 
   53200    294.93366   -111360.74   -110538.74    -334.5243    218736.27  0.048734832 
   53300     291.6399   -111355.32   -110542.51    93.321742    218579.07  0.048769882 
   53400    302.29718   -111390.84   -110548.32   -426.50401    218410.59  0.048807502 
   53500    307.24784   -111413.14   -110556.83   -139.01189    218228.53   0.04884822 
   53600    298.71865   -111399.42   -110566.87   -142.30921     218085.4   0.04888028 
   53700    293.33237    -111396.1   -110578.57   -93.187541    217964.22  0.048907455 
   53800    297.41609   -111418.27   -110589.35   -241.62917    217834.24  0.048936638 
   53900    294.08527   -111417.81   -110598.18   -278.47483    217668.05  0.048974002 
   54000    281.91352   -111389.46   -110603.75   -36.583163    217455.83  0.049021796 
   54100    293.88212   -111425.31   -110606.24   -371.93394    217237.29  0.049071111 
   54200    291.89677   -111420.26   -110606.73    187.07824    217046.15  0.049114327 
   54300    296.04022   -111429.81   -110604.73   -182.76139    216883.98   0.04915105 
   54400     292.1241   -111414.37   -110600.21   -50.646183    216729.36  0.049186115 
   54500    294.17627   -111412.54   -110592.65    25.008534    216559.21   0.04922476 
   54600    304.57633   -111429.97    -110581.1    -96.34326    216396.63  0.049261744 
   54700    297.12306   -111393.06   -110564.96    20.513388    216240.78  0.049297249 
   54800    305.26657   -111398.55   -110547.76   -94.271081    216061.61  0.049338127 
   54900    307.16677   -111388.38   -110532.28   -442.46179    215904.22  0.049374095 
   55000    310.99511   -111390.03   -110523.27    93.834811    215771.76  0.049404404 
   55100    307.91927   -111378.49    -110520.3    328.51021    215678.68  0.049425726 
   55200    310.61755    -111386.3   -110520.59   -143.21246    215576.22  0.049449218 
   55300    312.03638    -111392.1   -110522.44   -298.85205    215433.87  0.049481892 
   55400     302.2309   -111368.14   -110525.81   -447.58296    215262.87  0.049521199 
   55500    303.93051    -111378.2   -110531.13    101.17226     215083.1  0.049562589 
   55600     307.5476   -111394.95    -110537.8   -237.28284    214942.41   0.04959503 
   55700      307.642   -111402.42   -110545.01   -13.668336    214795.96  0.049628845 
   55800    300.42801   -111389.12   -110551.81    49.057072    214628.47  0.049667574 
   55900    296.13737   -111383.58   -110558.23    -133.1629    214482.95  0.049701271 
   56000    302.48827   -111408.42   -110565.37    106.28734    214333.18  0.049736002 
   56100    291.62458   -111383.63   -110570.86   -148.94073    214192.83  0.049768592 
   56200    295.95934   -111399.12   -110574.27    46.724012    214035.27  0.049805228 
   56300    299.21707   -111410.07   -110576.13    275.83934    213873.08  0.049842998 
   56400    298.19932   -111409.36   -110578.27    38.790479    213703.37   0.04988258 
   56500    298.49364   -111411.88   -110579.96   -294.00194    213553.53   0.04991758 
   56600    300.26572   -111418.59   -110581.73   -160.60317    213445.88  0.049942755 
   56700    301.23275   -111421.55   -110581.99    -58.50684    213322.91  0.049971545 
   56800    310.17226   -111444.61   -110580.14   -318.65378    213169.21  0.050007575 
   56900    300.16009   -111413.11   -110576.55    420.55882    212987.02  0.050050352 
   57000    289.14977   -111374.58   -110568.71   -243.80373    212821.79  0.050089209 
   57100    311.44879   -111420.39   -110552.36   -241.94183    212651.43  0.050129339 
   57200    309.53984      -111392   -110529.29   -312.37372    212507.16  0.050163371 
   57300    294.97544   -111331.46   -110509.35    336.93872    212372.03  0.050195288 
   57400    307.54141   -111354.06   -110496.93    192.08035    212228.97  0.050229124 
   57500    313.85977   -111365.25   -110490.51    113.92784     212067.5  0.050267369 
   57600    312.97698   -111360.98    -110488.7    317.37582     211874.9  0.050313063 
   57700    307.14004   -111347.57   -110491.55   -67.310372    211674.03  0.050360809 
   57800    306.04975   -111352.19   -110499.21   -529.63488    211480.85  0.050406811 
   57900    306.59538   -111364.12   -110509.62    264.58899    211321.83  0.050444743 
   58000     313.4362   -111395.28   -110521.72   -127.25389     211169.5  0.050481132 
   58100    295.37423   -111357.19   -110533.96    286.93371    210982.12  0.050525966 
   58200    300.29312   -111381.95   -110545.02   -639.95734    210754.22  0.050580601 
   58300    303.09783   -111398.41   -110553.66   -467.70366    210507.14   0.05063997 
   58400    306.83719   -111415.32   -110560.14    288.60769    210273.51  0.050696236 
   58500    297.23214   -111393.89   -110565.49    -14.85185    210081.24  0.050742634 
   58600    307.00214   -111425.63   -110569.99   -89.010368    209870.76  0.050793522 
   58700    305.71477   -111426.26   -110574.21    16.665815    209654.43  0.050845935 
   58800    303.44065   -111421.73   -110576.02   -167.81207       209405  0.050906498 
   58900    295.79007   -111401.78   -110577.39    94.324048    209140.93  0.050970775 
   59000     294.4117   -111397.94    -110577.4    264.90677    208886.99  0.051032739 
   59100    294.65602   -111396.43   -110575.21    70.319923       208650  0.051090705 
   59200     296.0075   -111396.52   -110571.53    -216.6096    208408.96  0.051149794 
   59300    297.68696   -111396.14   -110566.46    14.561131    208168.58  0.051208858 
   59400    294.92165   -111381.35   -110559.38    423.18483    207936.02  0.051266131 
   59500    308.80293   -111408.96   -110548.31    218.62862    207718.01  0.051319937 
   59600    308.26622   -111392.94   -110533.78   -376.68765    207518.75  0.051369215 
   59700    315.97982   -111398.66   -110518.01    165.07968    207329.37  0.051416137 
   59800    310.94648   -111370.93    -110504.3   -202.38852    207155.32  0.051459336 
   59900    309.24282   -111356.42   -110494.54   -21.813025    206983.09  0.051502157 
   60000    313.33362   -111363.67   -110490.39   -42.075224    206801.99  0.051547257 
   60100    318.33019    -111376.9   -110489.69    153.81483    206608.29  0.051595585 
   60200    316.82711   -111377.65   -110494.63    225.60581    206410.95  0.051644913 
   60300    314.67806   -111381.16   -110504.14    233.90719    206223.67  0.051691813 
   60400    308.07816   -111375.13    -110516.5   -521.73261     206027.1  0.051741131 
   60500    315.45183   -111412.31   -110533.13    288.29568    205820.04  0.051793184 
   60600    302.50185    -111390.8   -110547.71   -445.65973     205623.5   0.05184269 
   60700    302.93319   -111401.81   -110557.52   -123.70199     205406.1   0.05189756 
   60800    295.25003   -111387.98    -110565.1   -21.180799    205168.51  0.051957659 
   60900    300.11933   -111404.65    -110568.2   -20.481843    204917.26  0.052021365 
   61000    309.28967   -111432.14   -110570.13    -110.6084    204650.37  0.052089206 
   61100    301.52041   -111412.41   -110572.06   -235.86813    204379.98  0.052158119 
   61200    293.76296   -111392.91   -110574.17    282.62959    204093.92  0.052231224 
   61300    295.77525   -111398.92   -110574.57   -87.504614    203811.44  0.052303616 
   61400    295.87609   -111399.58   -110574.96    71.158984    203518.55  0.052378888 
   61500    308.03359   -111432.84   -110574.33    5.3767095    203219.62  0.052455936 
   61600    288.98462   -111378.66   -110573.25    103.80359    202905.17  0.052537229 
   61700    293.54452   -111388.43   -110570.31    421.55896    202563.99  0.052625716 
   61800    299.82806   -111403.13   -110567.49    112.16768    202225.42  0.052713824 
   61900    301.18956      -111403   -110563.57    -15.00853    201911.22  0.052795854 
   62000    300.34938   -111395.18   -110558.09   -115.23448    201615.38  0.052873324 
   62100    296.69451   -111377.94   -110551.04   -128.36603    201317.82  0.052951474 
   62200    300.07237   -111379.78   -110543.46    360.76969    201009.36  0.053032731 
   62300    302.66993   -111377.77   -110534.22    94.284512    200720.27  0.053109112 
   62400    319.92528   -111415.27   -110523.62   -158.71828    200468.95  0.053175692 
   62500    307.42561   -111372.14   -110515.33   -135.58088    200234.73  0.053237893 
   62600    302.65378   -111353.32    -110509.8    242.38287    199973.47  0.053307449 
   62700    315.14399   -111384.99   -110506.67    34.252063     199727.8  0.053373018 
   62800    313.62478    -111381.6   -110507.51   -369.37019    199496.69  0.053434849 
   62900    299.32393   -111345.11   -110510.88    133.43198    199288.69   0.05349062 
   63000    306.03569   -111372.07   -110519.13   -89.078743    199109.74  0.053538695 
   63100    307.46497   -111388.27   -110531.35   -506.65893    198943.18  0.053583517 
   63200    299.15506   -111382.33   -110548.57   -203.19733    198766.13  0.053631247 
   63300    296.52469   -111391.28   -110564.85   -421.17541    198595.28  0.053677387 
   63400    288.64029   -111382.58   -110578.12   -313.52115    198400.32  0.053730131 
   63500    292.09013   -111399.95   -110585.87    116.93964    198157.56  0.053795956 
   63600    288.81782   -111394.75    -110589.8   -202.44623    197896.71  0.053866864 
   63700    293.15894   -111408.34   -110591.29   -208.94708    197605.19  0.053946332 
   63800    301.79739   -111431.83    -110590.7    22.869844    197289.08   0.05403277 
   63900     295.3291   -111411.59   -110588.49     180.2548     196961.4  0.054122662 
   64000    293.77141   -111402.33   -110583.57   -157.77447    196639.07  0.054211379 
   64100    303.96256    -111423.9   -110576.74    118.17036    196296.46     0.054306 
   64200    307.76614    -111428.4   -110570.64   -41.063676    195940.26  0.054404722 
   64300    298.83791   -111397.78    -110564.9    30.322081    195569.57  0.054507841 
   64400    287.26231   -111358.56   -110557.94    388.41239     195197.3  0.054611799 
   64500    307.50778   -111406.76   -110549.72    145.85741    194824.02  0.054716434 
   64600    305.52235    -111393.5   -110541.99   -300.20299    194427.05  0.054828149 
   64700     296.5834   -111359.92   -110533.32     33.45921    194011.57  0.054945565 
   64800    298.16988   -111352.94   -110521.92    52.679023     193600.5   0.05506223 
   64900    317.82461   -111393.28   -110507.49    387.22132    193212.78  0.055172723 
   65000    313.38183   -111366.31   -110492.89   -213.88482    192844.22  0.055278168 
   65100    311.86503   -111345.01   -110475.83   -461.08738    192461.12  0.055388203 
   65200    316.07979   -111342.61   -110461.67   -479.42952    192058.97   0.05550418 
   65300    310.09042   -111318.64    -110454.4    322.25858    191626.26  0.055629511 
   65400    314.95904   -111331.78   -110453.97   -245.73615    191198.29   0.05575403 
   65500    324.59556   -111364.73   -110460.06    12.952502    190763.98  0.055880966 
   65600     331.5421   -111399.51   -110475.49    91.014514    190325.17  0.056009803 
   65700    316.55706   -111380.34   -110498.08   -355.09466    189883.88  0.056139971 
   65800    302.42372   -111360.34   -110517.47     286.9102    189453.79  0.056267418 
   65900    300.77575   -111364.45   -110526.17   -27.939197    189040.67  0.056390382 
   66000     324.2849   -111436.82   -110533.02    121.06611    188625.17  0.056514596 
   66100    310.98679   -111406.47   -110539.73    -119.8249    188204.44  0.056640933 
   66200    304.78677   -111396.74   -110547.28    313.22588    187804.51  0.056761552 
   66300    305.64093   -111408.06   -110556.22   -376.96361    187423.77  0.056876859 
   66400    304.83935   -111416.17   -110566.57    59.642601       187061   0.05698716 
   66500    294.11208   -111397.79   -110578.08   -567.32327     186700.9  0.057097074 
   66600    305.95683   -111441.44   -110588.72    49.859919    186350.06  0.057204573 
   66700    297.49894   -111427.83   -110598.69    232.38226    186002.56  0.057311444 
   66800     292.1465   -111421.31   -110607.08    150.43878    185661.02  0.057416875 
   66900    290.77538   -111422.94   -110612.53   -152.90033    185350.57  0.057513042 
   67000    296.84483   -111442.93    -110615.6   -557.50898    185050.14  0.057606417 
   67100    290.22791   -111425.41   -110616.53    20.228722    184757.88  0.057697542 
   67200    291.74169   -111428.72   -110615.62   -319.64527    184473.09  0.057786616 
   67300    298.05684   -111442.27   -110611.57    396.34832    184197.22  0.057873161 
   67400    295.35294   -111427.78   -110604.62   -530.36093    183941.15  0.057953728 
   67500    307.03866   -111450.09   -110594.36   -29.056913    183693.87  0.058031742 
   67600    296.79497    -111408.4   -110581.21   -255.61619    183453.94   0.05810764 
   67700    292.97538   -111382.88   -110566.34   -463.02297    183229.76  0.058178735 
   67800    301.50129   -111394.39   -110554.09   -509.73423    183018.08  0.058246024 
   67900     306.5053   -111400.59   -110546.34     342.4749    182816.67  0.058310193 
   68000    305.29131    -111392.8   -110541.93   -141.66689    182646.25    0.0583646 
   68100    290.31236   -111350.11   -110540.99   -465.52778    182478.86   0.05841814 
   68200    316.27641   -111422.53   -110541.05   -19.195105    182311.08  0.058471901 
   68300    306.48217   -111399.24   -110545.05    303.36516     182173.8  0.058515963 
   68400    313.37203   -111423.02   -110549.64    10.669096    182075.79  0.058547461 
   68500    304.82635   -111404.91   -110555.35   -278.48397     181979.6   0.05857841 
   68600    293.13057   -111379.08   -110562.11    16.626102    181859.06  0.058617236 
   68700    308.33432   -111428.46   -110569.12   -427.19933       181729  0.058659188 
   68800    304.90886   -111426.06   -110576.26    132.70196    181587.18     0.058705 
   68900    311.14609    -111451.3   -110584.12   -127.89776    181462.72  0.058745263 
   69000    303.13253   -111436.43   -110591.58   -79.117954     181335.8  0.058786381 
   69100    287.16914   -111397.81   -110597.46   -187.32472    181196.14   0.05883169 
   69200    303.00957   -111445.53   -110601.02   -457.95062    181042.21  0.058881712 
   69300    281.15942   -111386.78   -110603.17   -162.28171    180885.48  0.058932732 
   69400    290.18306    -111411.8   -110603.04   -646.75786    180751.44  0.058976433 
   69500    288.23576   -111404.62   -110601.29    253.44085    180621.89  0.059018734 
   69600    300.22268   -111429.56   -110592.82    454.65516    180497.21  0.059059503 
   69700    305.05363   -111422.55   -110572.34     563.4365    180359.07  0.059104738 
   69800    304.22384   -111390.82   -110542.93    353.52895    180228.57  0.059147532 
   69900    299.69487   -111359.21   -110523.94   -33.867554    180102.79   0.05918884 
   70000    313.86998   -111389.79   -110515.02   -139.78956    179954.38  0.059237653 
   70100    315.50781   -111389.98   -110510.64    581.07275    179794.15  0.059290446 
   70200    311.55859   -111379.01   -110510.68   -95.686542    179639.97  0.059341334 
   70300    298.06478   -111344.37   -110513.65    619.69348    179518.86  0.059381367 
   70400    315.26159   -111397.63   -110518.98   -176.55258    179426.55  0.059411918 
   70500    318.77728   -111416.61   -110528.16    458.35738    179357.25  0.059434871 
   70600    309.63458   -111404.83   -110541.86    250.34413    179284.76  0.059458903 
   70700    308.55497   -111416.53   -110556.57    365.89509    179181.02  0.059493328 
   70800    303.60545   -111416.85   -110570.68    171.48226    179060.44  0.059533391 
   70900    294.26999   -111402.45    -110582.3   -452.07151    178955.13  0.059568427 
   71000    297.96254   -111421.32   -110590.88    340.07378    178881.77  0.059592855 
   71100    297.30691   -111425.34   -110596.73   -309.25885    178841.07  0.059606416 
   71200    299.23823   -111434.68   -110600.68    108.26402    178785.91  0.059624807 
   71300    293.00989   -111420.44    -110603.8   -398.09019    178698.41  0.059654001 
   71400    294.52752   -111426.92   -110606.06    63.325529    178571.94   0.05969625 
   71500    295.11169   -111428.35   -110605.86   -200.40254    178429.72  0.059743832 
   71600    296.59996    -111430.5   -110603.86     113.0561    178311.15   0.05978356 
   71700     302.4468    -111442.3   -110599.36    278.55345    178223.11  0.059813092 
   71800     291.5022   -111404.96   -110592.53   -138.36031    178143.61  0.059839786 
   71900    290.80518   -111393.49      -110583    29.227993    178050.11  0.059871208 
   72000    293.05964   -111386.96   -110570.18   -272.16441    177959.23  0.059901782 
   72100    306.77622   -111411.17   -110556.17    279.19449    177869.95  0.059931851 
   72200    295.97138   -111367.58   -110542.69    69.697158    177809.91  0.059952089 
   72300    305.99652   -111385.15   -110532.32    472.90367    177753.81  0.059971011 
   72400    305.22406   -111375.99   -110525.31   -26.852649    177707.01  0.059986803 
   72500    323.81807   -111425.23   -110522.73    26.928088    177680.62  0.059995712 
   72600    310.30777   -111389.41   -110524.57   -28.310953    177677.16  0.059996882 
   72700    302.20771   -111370.69   -110528.42    4.9798971     177665.7  0.060000751 
   72800     304.6562   -111383.83   -110534.73   -370.55856    177658.46  0.060003197 
   72900    305.37262   -111392.66   -110541.57    28.659601     177661.5  0.060002169 
   73000    299.83712   -111383.13   -110547.47    493.15008     177683.3  0.059994808 
   73100    294.51389    -111371.8   -110550.98   -105.31383    177743.61  0.059974451 
   73200    303.50387    -111400.2   -110554.32   -213.07093    177817.42  0.059949556 
   73300    294.68542   -111376.94   -110555.64   -385.19458    177881.56   0.05992794 
   73400     310.1412   -111420.54   -110556.16   -357.52555    177896.05  0.059923057 
   73500     311.7926    -111426.5   -110557.51    1016.9875    177865.96  0.059933194 
   73600    298.44791   -111390.48   -110558.69   -376.07666    177829.79  0.059945387 
   73700    292.85235   -111377.01   -110560.82    -31.14637    177797.52  0.059956267 
   73800     296.4262    -111387.7   -110561.54    460.15882    177768.28  0.059966127 
   73900    301.76308   -111402.11   -110561.08   -6.7289821    177747.55  0.059973121 
   74000    298.16378   -111391.36   -110560.36   -356.78873    177705.42   0.05998734 
   74100    297.27831   -111386.88   -110558.35   -73.380642     177621.4  0.060015714 
   74200    302.65157   -111398.14   -110554.63    98.726487    177507.98  0.060054063 
   74300    300.68689   -111387.74   -110549.71    390.74562    177389.59  0.060094144 
   74400    305.21777   -111393.12   -110542.46   -90.757774    177289.99  0.060127902 
   74500      306.697   -111388.95   -110534.16   -188.33625    177204.37  0.060156957 
   74600    306.26646   -111376.42   -110522.84   -151.03319    177122.33   0.06018482 
   74700    302.78132   -111354.06   -110510.19    -2.302755    177017.92  0.060220318 
   74800    329.45474   -111416.22   -110498.01    116.67942    176879.03  0.060267606 
   74900    315.05245    -111367.9   -110489.84   -49.792994    176716.63  0.060322991 
   75000    302.17827   -111329.03   -110486.84   -841.29923    176555.17  0.060378155 
   75100    303.86055   -111334.96   -110488.08     11.34291    176398.71  0.060431708 
   75200    311.51002   -111361.76   -110493.56    338.63476    176254.04   0.06048131 
   75300    307.57181    -111361.5   -110504.28   -137.94899    176113.46  0.060529588 
   75400    301.37958   -111360.87   -110520.91    348.91364    175962.44   0.06058154 
   75500    305.98537   -111392.56   -110539.76   -444.72921    175817.15    0.0606316 
   75600    303.39292   -111401.14   -110555.56   -9.8726224    175688.34  0.060676053 
   75700    300.13445   -111403.48   -110566.99    59.284906    175570.63  0.060716734 
   75800    304.81083   -111422.75   -110573.23    173.53639    175451.84  0.060757843 
   75900     301.1692   -111417.65   -110578.27   -9.0907474    175329.68  0.060800176 
   76000    297.37336    -111410.5   -110581.71   -216.22004    175206.04  0.060843081 
   76100    292.57801   -111400.46   -110585.02   -84.941107    175077.16  0.060887871 
   76200    298.50835   -111417.76    -110585.8    393.90768    174966.12  0.060926511 
   76300    294.24908   -111407.13   -110587.04   -291.00126    174899.33  0.060949779 
   76400    291.90883   -111400.73   -110587.16    339.35794    174854.67  0.060965346 
   76500    296.66665   -111413.12    -110586.3    95.502827    174798.14  0.060985062 
   76600    299.66356   -111420.42   -110585.24    -283.6129    174732.66  0.061007916 
   76700    290.96951   -111394.79   -110583.84    165.40724    174670.74  0.061029541 
   76800    302.50463   -111425.21   -110582.11    455.17124    174602.37   0.06105344 
   76900    295.98416   -111405.11   -110580.18    525.54427    174509.02    0.0610861 
   77000    289.09974   -111382.44    -110576.7     328.4913    174409.88  0.061120823 
   77100    295.72918   -111394.59   -110570.38     52.37089    174326.84  0.061149938 
   77200    310.56805   -111426.48   -110560.91    139.72437    174248.98  0.061177263 
   77300      305.819   -111403.98   -110551.65   -51.317406    174154.96   0.06121029 
   77400    304.12048   -111388.71   -110541.11   -351.42305     174022.3   0.06125695 
   77500    306.32673   -111386.89   -110533.14    255.31982    173898.17  0.061300675 
   77600    308.31441   -111387.55   -110528.26    301.11022    173808.86  0.061332174 
   77700    300.09771    -111361.6   -110525.21   -6.9300493    173741.84  0.061355833 
   77800    307.54242   -111382.27   -110525.13   -321.43931    173663.44  0.061383531 
   77900    310.78077   -111394.53   -110528.37   -413.51096    173577.79  0.061413823 
   78000    298.80382   -111368.41   -110535.63    46.726086    173506.28  0.061439134 
   78100     297.0536   -111374.66   -110546.76   -234.27633    173445.55  0.061460644 
   78200    294.97741   -111384.36   -110562.24    27.907887    173367.68  0.061488249 
   78300    295.00514   -111400.23   -110578.03    159.60185    173292.97  0.061514761 
   78400     292.7536   -111406.38   -110590.46    551.91658     173225.9  0.061538576 
   78500    294.54442   -111420.04   -110599.13    170.62392       173181   0.06155453 
   78600    298.11095   -111435.06   -110604.21   -75.211799    173146.43   0.06156682 
   78700    299.67104   -111441.88   -110606.68    338.28934    173130.33  0.061572546 
   78800    290.37525   -111415.61   -110606.31   -4.9733197    173107.86   0.06158054 
   78900    288.26855    -111405.9   -110602.48   -300.62475    173063.11  0.061596461 
   79000    292.58078   -111413.02   -110597.58   -59.794457    172985.92  0.061623949 
   79100    287.88618   -111392.54   -110590.18   -83.930892    172891.85  0.061657476 
   79200    299.28848   -111415.76   -110581.62   -93.389183    172789.69  0.061693932 
   79300    295.75944   -111398.87   -110574.57   -54.581313    172707.95   0.06172313 
   79400    294.10972   -111388.29   -110568.59    -15.37466    172627.25  0.061751986 
   79500    291.38957   -111374.75   -110562.63     459.9756    172535.21  0.061784926 
   79600    305.37019   -111408.86   -110557.77   -355.02848    172441.37  0.061818548 
   79700    297.33855    -111383.3    -110554.6    186.21576    172344.06  0.061853455 
   79800    301.25719   -111392.42    -110552.8   -61.608035    172258.34  0.061884235 
   79900    306.46622   -111406.53   -110552.39     273.0718    172174.68  0.061914304 
   80000    296.40816   -111377.09   -110550.98   -237.92209    172112.75   0.06193658 
   80100    312.56732   -111421.79   -110550.65    307.16398    172065.49  0.061953594 
   80200    300.52543    -111388.1   -110550.52    59.551709    172037.26  0.061963761 
   80300     297.9374   -111381.81   -110551.44    -242.9023    172018.18  0.061970633 
   80400    308.70521   -111414.49   -110554.11   -46.831372    172009.01  0.061973938 
   80500    308.04069   -111417.25   -110558.73   -37.115881    171991.26  0.061980331 
   80600    294.41329   -111383.77   -110563.22   -798.45556     171963.6  0.061990301 
   80700    298.66326   -111399.22   -110566.83   -221.44435    171917.49  0.062006927 
   80800     295.1118   -111391.14   -110568.65   -298.52833     171865.2  0.062025792 
   80900    300.65525   -111409.09   -110571.15   -157.45473     171788.7  0.062053413 
   81000    297.01968   -111400.36   -110572.55   -25.977614    171723.08  0.062077128 
   81100    303.90211   -111420.74   -110573.74    93.887672    171659.36  0.062100168 
   81200    299.99519   -111409.72   -110573.62   -126.86149    171592.19  0.062124479 
   81300    298.35977   -111401.83   -110570.28    467.09094    171505.99  0.062155705 
   81400    304.60542   -111412.32   -110563.37    22.959726    171413.74  0.062189152 
   81500    307.99544   -111405.56   -110547.16   -404.07136    171297.95  0.062231191 
   81600    297.04853   -111349.45   -110521.56    5.7969442    171157.74  0.062282168 
   81700    304.41001   -111348.56   -110500.15    106.13616    171005.01  0.062337797 
   81800    304.57592   -111337.08   -110488.21   -282.33657    170849.45  0.062394553 
   81900    317.65193   -111368.47   -110483.16    270.38879    170684.01  0.062455033 
   82000    311.46577   -111350.95   -110482.88    -119.1624    170511.14   0.06251835 
   82100      307.372    -111345.3   -110488.64   -77.650874    170326.37   0.06258617 
   82200    323.00719   -111399.57   -110499.33   -140.80068    170152.53  0.062650112 
   82300    304.22513   -111360.66   -110512.77    59.956178    170005.74  0.062704208 
   82400    304.51766   -111376.01    -110527.3    154.91238    169877.13  0.062751682 
   82500    295.74864    -111365.4   -110541.13    37.179555    169755.92  0.062796488 
   82600    310.84301   -111418.71   -110552.37   -236.85373    169635.69  0.062840993 
   82700    306.98967   -111417.65   -110562.05    145.58979    169503.98  0.062889823 
   82800    301.47838   -111410.22   -110569.98   -329.62021    169359.47  0.062943487 
   82900    308.32347   -111436.38   -110577.06    655.70184    169221.19  0.062994922 
   83000    302.87441   -111426.76   -110582.63    42.153439    169119.48  0.063032807 
   83100    301.17413   -111428.16   -110588.77   -112.68832    169035.83  0.063063999 
   83200    298.45456   -111427.02   -110595.21    42.814054    168955.77  0.063093881 
   83300    297.76233   -111430.99   -110601.11   -378.66357    168884.91  0.063120356 
   83400    299.93785   -111440.77   -110604.83    339.82587    168821.79  0.063143955 
   83500    288.67403   -111410.74   -110606.19    97.773612    168782.07  0.063158814 
   83600    290.59735   -111414.82   -110604.91    265.92173    168780.34   0.06315946 
   83700    296.74197   -111427.33   -110600.29   -89.449164    168794.69  0.063154093 
   83800     307.3654   -111448.94   -110592.29   -266.57605    168787.21   0.06315689 
   83900    291.43599    -111392.5   -110580.25   -21.485998    168759.89  0.063167117 
   84000    302.51578   -111406.24   -110563.12    324.60056    168730.69  0.063178048 
   84100    305.87956   -111398.88   -110546.38   -525.07405    168719.46  0.063182252 
   84200    305.89531    -111386.7   -110534.15    104.55462    168682.07  0.063196255 
   84300    302.11854   -111370.03   -110528.01     114.5281    168608.71  0.063223751 
   84400     304.6374   -111373.99   -110524.95   -359.19143    168509.06  0.063261141 
   84500    309.33717   -111386.21   -110524.07   -248.28349    168420.14   0.06329454 
   84600    315.75388   -111405.33   -110525.31    112.31303    168337.18  0.063325734 
   84700    299.87701   -111364.48    -110528.7    241.05684    168257.78  0.063355615 
   84800    291.91207   -111344.43   -110530.85    466.01482     168180.5  0.063384727 
   84900    298.94844   -111366.46   -110533.27    437.77335     168077.4  0.063423611 
   85000    300.02169   -111371.15   -110534.97      139.049    167969.64  0.063464299 
   85100    294.46615   -111356.47   -110535.77    531.10511    167883.84  0.063496733 
   85200    306.92393   -111391.68   -110536.26    10.506181    167832.87  0.063516018 
   85300    291.90825   -111351.37    -110537.8   -164.41006     167778.8  0.063536487 
   85400    304.55322   -111386.22   -110537.42   -212.85084    167690.57  0.063569916 
   85500    301.43091   -111380.63   -110540.53   -706.94718    167576.54  0.063613171 
   85600     313.2542   -111421.09   -110548.03    196.25735    167436.12  0.063666523 
   85700    300.85837   -111400.08   -110561.57    316.69179    167298.98  0.063718713 
   85800    297.63635   -111411.53      -110582    288.58191    167175.19  0.063765894 
   85900    296.98082   -111426.94   -110599.24    83.154928    167100.92  0.063794235 
   86000    282.36409   -111397.69   -110610.73   -682.12453    167046.01  0.063815205 
   86100    289.73791   -111423.86   -110616.35    147.20691    166975.43  0.063842178 
   86200    294.13668   -111436.76   -110616.98    189.57003    166890.28  0.063874751 
   86300    289.78436   -111422.82   -110615.17    281.59211    166809.93  0.063905521 
   86400    278.53971   -111388.45   -110612.14   -145.18335    166740.45   0.06393215 
   86500    291.82962    -111418.9   -110605.55   -572.68957    166655.26  0.063964831 
   86600    295.57859    -111420.3    -110596.5    333.73298    166547.46   0.06400623 
   86700     301.4629    -111425.6   -110585.41   -70.432446    166411.15  0.064058661 
   86800     288.4241   -111378.25    -110574.4     398.5549    166248.56  0.064121311 
   86900    297.06927   -111391.36   -110563.41   -75.305354    166077.43  0.064187382 
   87000    300.74737   -111392.52   -110554.32    138.00005     165913.3  0.064250878 
   87100    312.59869   -111419.12   -110547.89    361.61329     165769.9  0.064306458 
   87200     305.6129   -111397.13   -110545.37   -317.27995    165635.88  0.064358491 
   87300    313.97139   -111419.45   -110544.39    32.060798    165486.09  0.064416746 
   87400    297.43729    -111374.1   -110545.13    381.94332    165335.64  0.064475365 
   87500     300.7088   -111384.81   -110546.71   -603.40088       165179  0.064536504 
   87600    303.34659   -111394.89   -110549.45    408.25834    165025.14  0.064596676 
   87700    310.60393    -111418.1   -110552.43    162.87115    164869.39  0.064657698 
   87800    303.86492   -111402.22   -110555.33    245.73501    164726.37  0.064713836 
   87900    298.90697   -111392.22   -110559.15    281.22989    164610.85  0.064759249 
   88000    297.86026   -111393.85    -110563.7   -257.10225    164533.55  0.064789676 
   88100    298.98648   -111400.96   -110567.67   -112.14027    164469.78  0.064814796 
   88200    301.54984   -111411.79   -110571.35    613.62673    164405.67  0.064840071 
   88300     307.0303    -111429.8   -110574.09   -309.86787    164331.14  0.064869479 
   88400    304.24859   -111427.71   -110579.75    68.274712    164270.07  0.064893595 
   88500    292.24569   -111403.35   -110588.85   -92.017789    164237.01  0.064906657 
   88600    290.38375   -111410.98   -110601.66   -217.81576    164215.89  0.064915005 
   88700    285.44912    -111410.5   -110614.93     -453.875    164208.62  0.064917879 
[...]
  978700    298.12079   -111647.99   -110817.11    4215.2359    9063.9842    1.1760916 
  978800    292.12874   -111630.68    -110816.5   -6490.4936     9067.892    1.1755847 
  978900    292.31301   -111629.92   -110815.23   -7943.9158    9070.0224    1.1753086 
  979000    290.29166   -111621.82   -110812.76    3896.0816    9071.9708    1.1750562 
  979100    313.21287   -111681.42   -110808.48    6443.4243    9076.0965     1.174522 
  979200    303.19801   -111648.95   -110803.92    450.04978    9082.5547    1.1736869 
  979300    309.68215   -111662.58   -110799.48    276.07041    9089.3463    1.1728099 
  979400    296.58811   -111622.99   -110796.38    8095.5665    9095.4486     1.172023 
  979500    293.04569   -111611.98   -110795.25    1016.7136    9102.2756     1.171144 
  979600    298.27993   -111626.32      -110795    2115.4818    9109.7632    1.1701814 
  979700    301.81567   -111637.59   -110796.41    5260.4723    9118.0745    1.1691147 
  979800    292.04998   -111613.91   -110799.95    5294.4111    9127.4657    1.1679118 
  979900    291.51472   -111615.28   -110802.82   -12136.309    9136.1186    1.1668057 
  980000    293.89671      -111627   -110807.89   -9234.3267    9144.0082     1.165799 
  980100    302.32192    -111656.5   -110813.91    8269.9677     9151.356    1.1648629 
  980200    301.00719   -111659.98   -110821.06   -271.42552    9159.3517    1.1638461 
  980300    299.83478   -111664.27   -110828.62    8700.6678    9166.7038    1.1629126 
  980400    294.36287   -111658.91    -110838.5    4548.5864    9172.7893    1.1621411 
  980500    286.13261   -111645.67    -110848.2    1568.4066     9179.133    1.1613379 
  980600    293.38499   -111673.24   -110855.56     -966.132    9185.9202    1.1604799 
  980700    290.44631   -111669.41   -110859.92   -12482.036     9191.483    1.1597775 
  980800    287.20432   -111662.52   -110862.07   -10069.966    9194.3667    1.1594138 
  980900    285.15824   -111653.44   -110858.69   -8581.1387    9195.9719    1.1592114 
  981000    294.83891   -111672.46   -110850.72     -6228.61    9196.8254    1.1591038 
  981100    293.83374   -111655.02   -110836.09    8608.5263    9197.0592    1.1590743 
  981200    290.35683   -111626.57   -110817.32   -3454.6065    9195.8701    1.1592242 
  981300    299.99057   -111634.51   -110798.42   -1669.3294    9191.5415    1.1597701 
  981400    301.92316   -111628.98    -110787.5    10281.107    9184.5506    1.1606529 
  981500    309.04363   -111642.49   -110781.16    153.86663    9175.9639     1.161739 
  981600    303.97327   -111625.17   -110777.98   -1587.6412    9164.3611    1.1632099 
  981700    316.12227   -111658.59   -110777.54    15654.652     9149.337      1.16512 
  981800    312.89042   -111649.63   -110777.58   -12743.088    9132.7258    1.1672392 
  981900    312.66843   -111651.03   -110779.61    1553.2932    9114.3082    1.1695979 
  982000    305.99479   -111634.68   -110781.85    3021.8981    9095.4303    1.1720254 
  982100    304.43649   -111636.96   -110788.48    2513.2652    9075.3293    1.1746213 
  982200    302.07932   -111636.12   -110794.21   -1911.1632    9053.7038     1.177427 
  982300    302.13721   -111641.01   -110798.93   -1203.3448    9031.2288    1.1803571 
  982400    295.97065   -111629.83   -110804.94    7493.8762    9008.2666    1.1833659 
  982500    291.61466    -111624.5   -110811.75   -1589.4942    8984.6757     1.186473 
  982600    295.61205   -111643.57   -110819.68     107.6635    8961.5974    1.1895285 
  982700    294.13874   -111647.22   -110827.44   -6154.3726    8939.1988     1.192509 
  982800    298.94175   -111670.23   -110837.06   -1840.1108    8916.8271     1.195501 
  982900    291.64323   -111658.42    -110845.6    1690.7869    8894.6788    1.1984778 
  983000    291.75235   -111667.67   -110854.54   -2369.0267    8873.2389    1.2013737 
  983100    294.63359   -111682.87   -110861.71    13623.594      8852.68    1.2041636 
  983200    286.50537   -111667.35   -110868.84    16435.528    8832.4377    1.2069234 
  983300    287.56472   -111678.37   -110876.91   -11875.743    8812.5761    1.2096435 
  983400    292.33515   -111696.46   -110881.71   -7598.7543    8792.0253     1.212471 
  983500    292.72455   -111696.75   -110880.91    4551.2504     8772.493    1.2151706 
  983600    285.58075   -111670.52   -110874.59    15097.541    8756.8383    1.2173429 
  983700    289.54344   -111670.26   -110863.29    6187.9192    8744.9506    1.2189978 
  983800    301.29749    -111685.8   -110846.06   -3099.2987    8734.3733     1.220474 
  983900    290.91612   -111639.71   -110828.91    5117.0483    8724.6052    1.2218404 
  984000    302.22354   -111657.42    -110815.1      10724.9    8716.3882    1.2229923 
  984100    310.13757   -111670.46   -110806.09   -8507.5905    8709.1292    1.2240116 
  984200    305.44957   -111651.58   -110800.27   -5717.9496    8702.9997    1.2248737 
  984300    297.79229   -111626.55   -110796.58   -7426.2652    8698.8879    1.2254527 
  984400    302.14631   -111636.16   -110794.06     7525.121    8696.2325    1.2258269 
  984500    307.63536   -111649.16   -110791.77       4424.9    8695.0482    1.2259938 
  984600    304.31178   -111638.52   -110790.39   -1086.9266     8694.976     1.226004 
  984700    312.80829      -111662   -110790.18    4445.6567    8696.6832    1.2257633 
  984800    300.45979   -111629.66   -110792.26    5043.2557     8701.332    1.2251085 
  984900    313.63328   -111669.96   -110795.84    4178.0039    8708.1861    1.2241442 
  985000    296.35424   -111628.32   -110802.36   -6105.4681     8717.389    1.2228519 
  985100     297.3633   -111641.38   -110812.61     9835.569    8727.7081     1.221406 
  985200    297.55298   -111655.44   -110826.14    3457.5183    8739.4401    1.2197664 
  985300     303.0837   -111687.58   -110842.87   -2235.6769     8753.402    1.2178208 
  985400    286.46796    -111656.4   -110857.99   -4878.0305    8769.4509    1.2155921 
  985500    307.65774   -111726.17   -110868.71    -1894.634     8786.691     1.213207 
  985600     286.1081    -111674.3    -110876.9    6991.6036    8805.3289    1.2106391 
  985700    285.33611   -111675.99   -110880.74   -6357.4779    8827.2028    1.2076391 
  985800    286.65998   -111677.65   -110878.71   -1789.4886    8850.1502    1.2045078 
  985900    293.92314   -111693.21   -110874.03    13467.852    8873.5808    1.2013274 
  986000     284.4649   -111659.74   -110866.92   -8249.3935    8897.7621    1.1980625 
  986100    290.90638    -111669.2   -110858.43    43.062997    8922.7514    1.1947072 
  986200    304.25506   -111696.95   -110848.97   -2226.0139     8947.062     1.191461 
  986300    295.73168   -111666.66   -110842.44    1754.9446    8970.6811     1.188324 
  986400    300.89491   -111674.63   -110836.02   -3102.6568    8993.9983    1.1852432 
  986500    305.25437   -111680.03   -110829.27    5412.2734    9017.2837    1.1821825 
  986600    300.80324   -111663.77   -110825.41    2746.0142    9040.8216    1.1791047 
  986700    296.83464   -111648.05   -110820.76     -2404.68    9065.0219    1.1759569 
  986800     297.6036   -111645.89   -110816.45    4355.3134    9088.2856    1.1729468 
  986900    301.70541   -111654.27    -110813.4   -6414.3895    9109.7875    1.1701783 
  987000    296.41514   -111635.03    -110808.9   -10042.079    9130.0008    1.1675876 
  987100    298.08251   -111636.07    -110805.3   -12856.757    9148.4286    1.1652357 
  987200    292.90873   -111617.98   -110801.62     -1070.64    9166.1881     1.162978 
  987300    301.01423   -111637.35   -110798.41    3610.4828    9182.7459     1.160881 
  987400    297.65505   -111625.51   -110795.93   -4620.0741    9198.1257      1.15894 
  987500    301.78261   -111633.27   -110792.19    4167.9838    9211.4548     1.157263 
  987600     303.3541   -111631.04   -110785.58   -5764.4448    9223.5236    1.1557487 
  987700    305.83935   -111627.82   -110775.43    1772.9198    9234.0529    1.1544308 
  987800    311.03506   -111627.13   -110760.25    646.11481    9243.7627    1.1532182 
  987900    312.10721    -111611.7   -110741.84    4283.4689     9251.407    1.1522653 
  988000    302.95224   -111570.94   -110726.59    -168.2261    9258.0068    1.1514439 
  988100    303.50507   -111562.04   -110716.16     1807.319    9263.1638    1.1508029 
  988200    308.66958   -111572.12   -110711.84    5017.2771    9267.8586    1.1502199 
  988300    306.52689   -111564.99   -110710.69   -1591.0521    9271.5203    1.1497656 
  988400    309.71147   -111578.27   -110715.09    -5167.926    9273.7507    1.1494891 
  988500    303.70378   -111570.36   -110723.92   -3396.6858    9274.6042    1.1493833 
  988600    304.49953   -111584.28   -110735.62   -2812.2309    9274.8739    1.1493499 
  988700     311.6589   -111617.91    -110749.3   -1062.9026    9273.5163    1.1495182 
  988800    303.31653   -111607.31   -110761.95    10675.863    9271.6002    1.1497557 
  988900    309.37699   -111633.69   -110771.44    -4555.816    9269.8274    1.1499756 
  989000    309.14896    -111640.8   -110779.18    7610.2007    9265.7374    1.1504832 
  989100    303.34849   -111631.75    -110786.3    1869.1097    9259.3957    1.1512712 
  989200    294.33575   -111613.49   -110793.16   -6496.1665    9251.3859    1.1522679 
  989300    298.11145   -111629.09   -110798.23   -895.51715    9243.3352    1.1532715 
  989400    303.04024   -111647.97   -110803.38   -4263.9158    9236.5315     1.154121 
  989500    298.41127   -111640.82   -110809.13   -6724.8291    9229.8859     1.154952 
  989600    291.04331   -111626.22   -110815.07   -2818.4239    9221.6808    1.1559796 
  989700     293.8501   -111641.13   -110822.15   -2031.3606    9212.5366    1.1571271 
  989800    293.37516   -111645.47   -110827.82      -7073.4     9202.999    1.1583263 
  989900    305.60431   -111683.32   -110831.59   -6580.1322    9192.7707    1.1596151 
  990000    293.78871   -111653.57   -110834.76   -5476.6989    9181.9245    1.1609849 
  990100    291.49711   -111649.47   -110837.05   -2261.6288    9170.6378    1.1624137 
  990200    296.51733   -111663.86   -110837.45   -5226.2649     9158.643    1.1639361 
  990300    294.09486   -111656.68   -110837.02   -2139.0536    9144.4546    1.1657421 
  990400    312.07057   -111702.83   -110833.07   -4865.7556    9127.7568    1.1678746 
  990500    300.98464   -111662.22   -110823.36   -4884.8856    9110.1305    1.1701342 
  990600    309.81336   -111674.66   -110811.19    3839.6489    9092.6441    1.1723845 
  990700    310.72352   -111663.14   -110797.13   -4696.5789    9075.8671    1.1745517 
  990800    307.65109   -111642.01   -110784.57   -131.70697    9060.1268    1.1765923 
  990900    297.96344   -111604.32   -110773.87    9252.4841    9045.2086    1.1785328 
  991000    309.43572   -111628.69   -110766.28   -6090.1008    9030.2696    1.1804825 
  991100    308.35642   -111621.59   -110762.18    9609.7546    9015.5946     1.182404 
  991200    301.53946   -111600.93   -110760.52    -6062.023     9003.367    1.1840099 
  991300    309.66742   -111624.37   -110761.31    9575.6646    8991.3584    1.1855912 
  991400    303.47979   -111611.26   -110765.45    2010.0044    8980.3566    1.1870437 
  991500    315.51518   -111653.44   -110774.08    9263.4958    8969.0675    1.1885378 
  991600    302.66846   -111630.19   -110786.63    1100.9408    8957.8853    1.1900214 
  991700    308.49833   -111663.89   -110804.09    4904.5791    8947.7917    1.1913638 
  991800    302.46753   -111662.99      -110820    1939.7957    8938.7319    1.1925713 
  991900     294.8701   -111654.66   -110832.84    8264.2959    8930.6348    1.1936526 
  992000    296.46556    -111665.9   -110839.63    662.02997    8923.7962    1.1945673 
  992100    288.45721    -111646.6   -110842.66    4929.7215    8917.8123    1.1953689 
  992200    292.55332   -111657.69   -110842.33   -11211.849    8912.4484    1.1960883 
  992300    290.60087   -111650.36   -110840.44    -9142.492    8906.5273    1.1968835 
  992400    301.31051   -111677.18   -110837.41    6665.3103    8900.3989    1.1977076 
  992500    294.95916   -111654.83   -110832.76    10588.068    8894.1125    1.1985541 
  992600    296.41652    -111653.6   -110827.47   -3528.2846     8889.538    1.1991709 
  992700    300.85257   -111660.57   -110822.08   -4407.2112    8886.1481    1.1996284 
  992800    295.59885    -111640.1   -110816.25   -3886.6115    8883.7563    1.1999514 
  992900    304.98982   -111660.31   -110810.28   -1497.1494    8881.8003    1.2002156 
  993000    307.22502   -111661.71   -110805.45    868.22947     8879.672    1.2005033 
  993100    305.25534   -111652.32   -110801.56   -12126.987    8878.3052    1.2006881 
  993200    295.31552   -111620.12   -110797.06    -4583.252    8878.5873    1.2006499 
  993300    306.60364   -111647.62    -110793.1    1037.3057    8880.3236    1.2004152 
  993400    309.89887   -111652.95   -110789.25   -4698.0774    8883.6465    1.1999662 
  993500    301.31812   -111625.51   -110785.72    763.30838    8888.7852    1.1992725 
  993600    305.44118   -111632.85   -110781.57    718.74218    8894.4383    1.1985102 
  993700    304.21178   -111623.82   -110775.96    3158.3084    8900.8034    1.1976532 
  993800    308.91085    -111631.9   -110770.95    3045.9435    8908.3122    1.1966437 
  993900    299.16189   -111601.99   -110768.21    4517.3131    8915.8534    1.1956315 
  994000    308.23832      -111626   -110766.93    10139.707    8922.5361     1.194736 
  994100    307.48995   -111625.88   -110768.89    6427.5845    8930.0015    1.1937372 
  994200    306.62479   -111629.27   -110774.69    17839.559     8939.719    1.1924397 
  994300     299.5387   -111618.42   -110783.59    2763.3036    8952.0079    1.1908027 
  994400    303.47903   -111641.28   -110795.47   -6193.1214    8964.4472    1.1891503 
  994500    294.37067   -111628.96   -110808.53    1060.5797    8974.9998    1.1877522 
  994600    297.98587   -111651.96   -110821.46   -8254.6493    8983.7053    1.1866012 
  994700    288.01635   -111635.22    -110832.5    7252.7191    8991.2039    1.1856116 
  994800    297.83078   -111669.93   -110839.86   -4056.4158    8999.6733    1.1844958 
  994900    291.42639   -111657.64   -110845.42   -12638.348    9007.8032    1.1834268 
  995000    302.32438   -111691.03   -110848.43   -857.76089    9015.2247    1.1824525 
  995100     289.1463   -111656.45   -110850.58    -6384.334    9021.8753    1.1815809 
  995200    294.94693   -111670.84   -110848.81   -8075.5578    9027.6068    1.1808307 
  995300    292.77879   -111662.77   -110846.78   -3784.2262     9032.041     1.180251 
  995400    291.04611    -111652.3   -110841.14    -9108.512    9037.0693    1.1795943 
  995500    293.17672    -111649.3    -110832.2   -6271.9015    9043.4373    1.1787637 
  995600    304.82674   -111669.45   -110819.88    14550.734     9049.915    1.1779199 
  995700    310.46954   -111671.19   -110805.89    171.81385     9055.967    1.1771327 
  995800    305.17728   -111642.67   -110792.13    1950.9074     9060.205    1.1765821 
  995900    294.94907   -111604.44    -110782.4     10789.57    9062.9974    1.1762196 
  996000    316.82752   -111659.68   -110776.67   -8983.8456    9064.8888    1.1759742 
  996100    310.11687   -111639.42   -110775.11   -1174.3182    9066.4381    1.1757732 
  996200    307.57316   -111633.25   -110776.03   -2895.8131    9068.4372    1.1755141 
  996300    301.38908   -111618.34   -110778.35    4398.3837    9070.7182    1.1752185 
  996400    296.33761   -111607.74   -110781.83   -9768.8701    9073.6038    1.1748447 
  996500    301.06173   -111624.75   -110785.68   -3787.5736    9076.0353      1.17453 
  996600    309.41866   -111653.44   -110791.07   -6535.8677    9077.6195     1.174325 
  996700     304.1401    -111645.7   -110798.04   -4900.0967    9078.8944    1.1741601 
  996800    304.36294   -111653.08    -110804.8    5469.4438    9079.8618     1.174035 
  996900    302.52246   -111656.32   -110813.18    -2795.613    9078.8513    1.1741656 
  997000    290.21391   -111629.27   -110820.43   -2506.4089    9076.2389    1.1745036 
  997100    296.54519   -111653.49      -110827    15140.612    9072.9725    1.1749265 
  997200     288.0068   -111635.28   -110832.59   -8442.0424    9069.9668    1.1753158 
  997300    302.70399   -111678.77   -110835.12   -914.07482    9066.7338    1.1757349 
  997400    296.20964   -111663.37   -110837.82    1245.1827    9063.6732    1.1761319 
  997500    293.76362   -111658.47   -110839.73    782.46858    9060.4538    1.1765498 
  997600    291.30809   -111651.37   -110839.48   -6398.4603    9057.4568    1.1769391 
  997700    297.51501   -111665.06   -110835.87    15554.103    9054.2246    1.1773593 
  997800    292.80665   -111646.38   -110830.31   -660.35906    9051.1024    1.1777654 
  997900     292.4593   -111634.09   -110818.98    10792.795    9048.1467    1.1781501 
  998000    299.55329   -111639.04   -110804.17   -6398.1619    9044.7879    1.1785877 
  998100    308.59224   -111648.48   -110788.42    378.69416    9040.3639    1.1791644 
  998200    309.81908   -111639.78    -110776.3    -2082.645    9034.3057    1.1799551 
  998300    303.45676   -111613.85    -110768.1   -301.18613    9028.3984    1.1807272 
  998400    312.95197   -111635.29   -110763.08    5064.3263    9024.0917    1.1812907 
  998500    306.75843   -111615.09   -110760.14     4937.673    9019.9126     1.181838 
  998600    302.58171   -111604.21    -110760.9    1340.5545    9017.0365     1.182215 
  998700    303.15115   -111607.69   -110762.79   -4592.7721    9014.2011    1.1825868 
  998800    309.74368   -111629.92   -110766.65    3910.6123    9010.6918    1.1830474 
  998900    309.54076   -111633.72   -110771.02   -6513.2839     9007.438    1.1834747 
  999000    313.79435   -111654.76    -110780.2    5152.8846    9004.4319    1.1838698 
  999100    312.72689   -111664.74   -110793.15   -1196.5851    9002.1679    1.1841676 
  999200    310.19192   -111673.13   -110808.61   -9904.8724    8999.7849    1.1844811 
  999300    295.88387   -111647.87   -110823.23     2096.262    8996.0694    1.1849703 
  999400    304.37127   -111682.08   -110833.78   -6782.1573    8991.3018    1.1855987 
  999500    293.36671    -111658.5   -110840.87   -7618.8025    8986.7206     1.186203 
  999600    290.83914   -111654.36   -110843.77   -1971.0938    8983.2615    1.1866598 
  999700    285.90015   -111640.28   -110843.46    6493.1277    8980.7279    1.1869946 
  999800    291.06696   -111652.81   -110841.59    3364.0351    8979.3416    1.1871778 
  999900     291.4249   -111648.92    -110836.7   -3922.1636    8978.6409    1.1872705 
 1000000    292.71015    -111647.3    -110831.5    1745.4761    8978.2177    1.1873264 
Loop time of 105564 on 1 procs for 1000000 steps with 936 atoms

Performance: 0.205 ns/day, 117.293 hours/ns, 9.473 timesteps/s
99.9% CPU use with 1 MPI tasks x no OpenMP threads

MPI task timing breakdown:
Section |  min time  |  avg time  |  max time  |%varavg| %total
---------------------------------------------------------------
Pair    | 86924      | 86924      | 86924      |   0.0 | 82.34
Neigh   | 371.33     | 371.33     | 371.33     |   0.0 |  0.35
Comm    | 22.454     | 22.454     | 22.454     |   0.0 |  0.02
Output  | 1.5965     | 1.5965     | 1.5965     |   0.0 |  0.00
Modify  | 18243      | 18243      | 18243      |   0.0 | 17.28
Other   |            | 1.021      |            |       |  0.00

Nlocal:    936 ave 936 max 936 min
Histogram: 1 0 0 0 0 0 0 0 0 0
Nghost:    9073 ave 9073 max 9073 min
Histogram: 1 0 0 0 0 0 0 0 0 0
Neighs:    617840 ave 617840 max 617840 min
Histogram: 1 0 0 0 0 0 0 0 0 0

Total # of neighbors = 617840
Ave neighs/atom = 660.085
Neighbor list builds = 10000
Dangerous builds not checked



Please see the log.cite file for references relevant to this simulation

Total wall time: 29:19:23
