#DETDA molecule
936 atoms
4 atom types

-1.5000000000000000e+01 5.0000000000000000e+01 xlo xhi
-1.5000000000000000e+01 5.0000000000000000e+01 ylo yhi
-1.5000000000000000e+01 5.0000000000000000e+01 zlo zhi

Masses

1 12
2 1.008
3 15.999
4 14

Atoms

1 2 0    -2.706560    -7.618120     9.227890 
2 1 0    53.022200    53.641400    15.619700 
3 3 0    53.480200    53.607800    14.285600 
4 1 0    53.177500    52.663000    16.591600 
5 1 0    54.416700    52.531200    13.855300 
6 2 0    54.154300    51.529400    14.130700 
7 2 0    53.823000    51.780600    16.392300 
8 2 0    55.418400    52.364700    14.334200 
9 1 0    52.275100    54.791600    16.028500 
10 2 0    52.173900    55.646400    15.374900 
11 2 0    54.220700    53.429800    11.917000 
12 1 0    54.606100    52.501800    12.351200 
13 3 0    54.960800    51.299900    11.650300 
14 2 0    56.492400    52.791800    11.095100 
15 1 0    56.101600    52.159600    11.845900 
16 2 0    56.963700    52.197500    12.636200 
17 1 0    57.517100    53.472000    16.985900 
18 3 0    57.112200    57.211400    16.362100 
19 2 0    58.037700    52.599300    17.442500 
20 2 0    57.401700    53.121300    15.922300 
21 2 0    -6.949830   -14.723400    12.773400 
22 2 0    55.810000    54.904300    17.072000 
23 2 0    58.089300    57.384200    16.598600 
24 1 0    51.747400    54.905200    17.273100 
25 2 0    55.329300    53.261000    17.217100 
26 2 0    55.012700    57.676900    17.243700 
27 1 0    56.083300    57.901000    17.291600 
28 2 0    58.236200    54.311600    16.910600 
29 2 0    -5.481570   -14.199100    12.013600 
30 1 0    -6.122010   -14.061500    12.850100 
31 2 0    -6.451290   -10.038800    13.232700 
32 1 0    61.900500    53.854200    15.461100 
33 1 0    61.872600    55.258300    16.087600 
34 2 0    62.913400    53.541600    15.214400 
35 2 0    -1.770780   -12.279900    13.004000 
36 2 0     0.307280    -9.973810    12.714900 
37 2 0    62.216200    56.033000    15.357200 
38 1 0    -1.405760   -11.407300    12.512900 
39 2 0    -1.154460   -11.786300    11.540500 
40 4 0    -3.889600   -11.398600    14.191000 
41 2 0    -4.840300   -11.091300    14.557000 
42 1 0    -3.630220   -10.401600    13.162300 
43 1 0    -2.456650   -10.346100    12.385000 
44 1 0    -0.123930   -10.874000    13.226600 
45 2 0    -0.355700   -10.533900    14.206900 
46 2 0     0.713020   -11.599600    13.252800 
47 2 0    -1.213480    -9.452550    10.818400 
48 1 0    -2.157010    -9.398610    11.396100 
49 1 0    -4.459440    -9.245520    12.969000 
50 2 0    -1.388320   -13.679600    15.033900 
51 2 0    61.468100    53.185200    16.318800 
52 1 0     0.260370   -14.928600    14.822800 
53 2 0    65.974700    57.767700    14.691400 
54 2 0    -3.588810   -13.150000    13.225900 
55 3 0    -6.146370   -12.863900    13.642500 
56 1 0    -1.074380   -14.671300    14.671000 
57 2 0    -3.389230   -13.314900    14.823500 
58 1 0    -3.830140   -13.853600    14.027000 
59 3 0    60.583700    55.496000    16.742500 
60 1 0    -5.314320   -13.925400    14.168600 
61 2 0    -5.632390   -14.765900    14.858900 
62 2 0     0.895340   -14.231900    15.228200 
63 2 0    -4.505050    -8.491230    16.836000 
64 1 0    -5.869300    -9.240840    13.590700 
65 2 0    -5.842560    -9.283460    14.704100 
66 2 0    -6.324250    -8.320070    13.327300 
67 1 0    -2.976340    -8.287360    11.303200 
68 2 0    -0.272820    -7.404280    10.458600 
69 1 0    -4.000710    -8.099730    12.258500 
70 2 0    63.911600    55.695400    16.710900 
71 1 0    63.068100    55.068200    17.093900 
72 2 0    -5.068820    -7.080830    13.568800 
73 1 0    -2.585150    -7.200760    10.259800 
74 2 0     3.912810    -9.234630    14.117600 
75 3 0     2.471430   -11.041200    17.028500 
76 3 0     4.468710   -12.203600    13.873000 
77 1 0     4.725730   -11.118400    14.729400 
78 2 0     4.452150   -11.032500    15.806600 
79 1 0     5.775630   -12.270600    14.474200 
80 2 0     5.998580   -12.850200    15.370200 
81 2 0     6.707360   -11.783000    14.153500 
82 3 0     5.890870    -9.027570    15.154100 
83 1 0     4.923770    -9.698200    14.216400 
84 2 0     5.097000    -9.758170    13.155300 
85 2 0     3.321420   -14.485100    15.763300 
86 2 0     7.329490    -7.709570    16.873500 
87 1 0     5.875530    -7.621170    15.263500 
88 2 0    68.020900    57.845600    15.928800 
89 1 0     6.697340    -7.046640    16.247300 
90 2 0     4.453070    -7.194640    13.762800 
91 2 0    52.061900    60.901200    17.213300 
92 2 0    56.098900    59.775900    16.384900 
93 2 0    56.262400    64.313100    17.411800 
94 2 0    56.615100    61.945900    17.074900 
95 1 0    56.175300    59.419100    17.419100 
96 1 0    65.982700    58.202200    15.705400 
97 2 0    -0.979150    -6.105880    11.491200 
98 2 0    -3.291970    -6.392880    10.320700 
99 1 0    -1.071200    -6.632440    10.523900 
100 2 0    62.492100    58.242500    13.436100 
101 4 0    -4.504300    -6.817180    12.729100 
102 2 0    -5.397500    -6.124700    16.211500 
103 2 0    -0.834220    -5.893750     9.768780 
104 3 0    59.921500    58.531300    15.313200 
105 2 0    61.952100    59.828700    13.031100 
106 1 0    61.575300    58.910700    13.539900 
107 3 0    63.611100    58.562600    15.315700 
108 1 0    61.168000    59.290800    14.964100 
109 2 0    61.243600    60.378200    14.939300 
110 1 0    62.385600    59.047100    15.959900 
111 2 0    62.499500    59.946200    16.607600 
112 1 0    64.733300    58.688400    16.164400 
113 2 0    62.003800    58.538600    16.840000 
114 2 0    58.714000    65.978700    17.256300 
115 2 0    60.134000    65.567300    16.415200 
116 1 0    59.301800    65.120900    16.959800 
117 3 0    58.884700    63.739800    16.955200 
118 1 0    64.833000    59.274300    17.459400 
119 1 0     5.040280    -6.752400    14.544300 
120 2 0     4.173960    -4.748330    14.328600 
121 1 0     4.934710    -5.394470    14.808900 
122 2 0     5.317770    -2.980700    15.088700 
123 1 0     5.815960    -4.903630    15.834100 
124 2 0     6.872250    -3.033480    16.019200 
125 1 0     5.818210    -3.379160    15.967600 
126 1 0     6.721320    -5.702300    16.545600 
127 2 0     7.370840    -5.243700    17.295600 
128 1 0     5.026480    -2.880980    17.174500 
129 2 0     3.214670    -3.624930    16.278800 
130 1 0     3.648270    -3.152390    17.143300 
131 1 0    67.132800    58.251000    16.445800 
132 3 0    57.280800    49.671400    16.063200 
133 1 0    56.534700    48.580600    16.614900 
134 1 0    56.374400    49.139000    15.077900 
135 2 0    56.974000    47.550200    16.641200 
136 2 0    56.654500    48.344700    14.354000 
137 2 0    55.369000    49.465400    14.827100 
138 2 0    54.579400    48.063000    17.082400 
139 2 0    54.883500    49.648900    17.299900 
140 1 0    -2.030880   -15.575100    14.151800 
141 3 0    -3.360130   -15.293600    13.906200 
142 1 0     0.649130   -16.211400    14.443200 
143 2 0    -2.329350   -17.622700    13.538500 
144 1 0    -1.605090   -16.906800    13.869800 
145 3 0    -1.495810   -17.332500    16.942800 
146 1 0    -0.302200   -17.207600    14.022300 
147 2 0     0.123810   -18.199900    13.690500 
148 2 0     2.715140   -15.703200    13.933100 
149 1 0     3.157190   -15.312300    16.445500 
150 1 0     2.147240   -16.514400    14.546100 
151 2 0     2.309650   -17.456900    14.018300 
152 2 0     1.992070   -18.563100    16.444400 
153 1 0     2.565570   -16.536100    16.005400 
154 1 0     2.327590   -17.633000    16.879000 
155 2 0    51.236200    55.821200    17.584300 
156 1 0    52.621100    52.710000    17.848800 
157 1 0    51.816100    53.802800    18.165900 
158 2 0    52.766700    51.926600    18.555700 
159 1 0    56.094000    53.965200    17.542500 
160 2 0    50.114100    54.239700    19.441000 
161 2 0    50.751200    52.738200    19.727900 
162 1 0    51.083200    53.760500    19.535000 
163 2 0    50.446700    53.792800    22.232300 
164 1 0    51.906300    54.337500    20.673800 
165 1 0    51.423500    54.224400    22.006300 
166 2 0    55.317300    52.184900    19.258400 
167 1 0    53.465300    55.317400    22.882100 
168 3 0    54.120600    55.665300    24.094500 
169 1 0    55.487600    56.147900    23.950900 
170 2 0    55.918300    56.090200    22.931200 
171 1 0    56.549600    53.890100    24.366600 
172 2 0    55.582200    53.485100    24.214000 
173 1 0    56.439500    55.350600    24.842800 
174 1 0    53.927700    55.356300    21.545500 
175 2 0    55.684900    57.215900    24.214700 
176 2 0    54.941900    55.767300    21.284600 
177 1 0    52.181700    54.739400    23.016400 
178 1 0    53.175500    54.938200    20.489700 
179 2 0    51.804000    54.683500    23.999800 
180 1 0    55.753400    51.664400    22.020700 
181 2 0    56.474900    51.442200    22.758100 
182 1 0    55.902200    52.932600    19.784200 
183 1 0    56.248000    52.859300    21.167500 
184 2 0    55.817500    50.711300    21.427500 
185 1 0    56.991800    53.852000    21.798500 
186 1 0    56.295700    54.074700    19.073000 
187 2 0    53.595100    55.000300    19.471700 
188 2 0    55.516000    57.131700    19.243900 
189 1 0    54.318200    52.065400    22.604700 
190 2 0    54.272900    52.964900    23.171200 
191 1 0    56.397900    57.404700    18.676000 
192 1 0    57.055200    55.129400    19.649000 
193 3 0    57.764300    56.023100    24.968700 
194 4 0    57.459400    53.693500    23.176100 
195 2 0    53.635300    52.132500    21.790800 
196 2 0    56.924000    53.307300    25.253200 
197 2 0    53.914100    51.331100    23.314300 
198 1 0    57.322000    54.991600    21.014300 
199 2 0    51.916200    52.793900   -39.675700 
200 1 0    50.720700    50.368900   -39.971800 
201 1 0    50.218500    50.534400   -42.361700 
202 2 0    51.078300    57.985200    24.441800 
203 4 0    50.352000    57.946300    23.750500 
204 1 0    50.701000    58.039400    22.384400 
205 2 0    56.875900    50.776200    18.125300 
206 2 0    57.601200    56.031100    17.947800 
207 4 0    57.456400    56.347600    18.925400 
208 2 0    57.409800    57.068800    21.767900 
209 1 0    57.200500    50.324300    19.078600 
210 1 0    58.084900    56.248600    21.554000 
211 2 0    52.857500    57.963600    23.826900 
212 2 0    -8.781460   -14.137300    25.411900 
213 2 0     0.807600   -11.505300    18.460800 
214 2 0    58.316000    55.326400    25.326300 
215 2 0    63.318300    51.189400    18.201600 
216 3 0    63.285400    53.672700    17.512500 
217 2 0    58.228400    54.434700    23.205200 
218 2 0    58.657800    56.651900    20.738100 
219 2 0    58.740300    56.161900    22.441100 
220 2 0    62.884300    55.732100    17.917400 
221 1 0    62.558900    51.771600    18.748700 
222 1 0    62.458400    53.138000    18.518500 
223 1 0    61.756400    51.095500    19.643300 
224 1 0    61.433400    53.812400    19.224300 
225 2 0    61.280300    54.883000    19.004300 
226 1 0    60.817900    51.806500    20.441000 
227 1 0    60.701800    53.205800    20.223100 
228 1 0    -2.435740    -8.299810    20.100700 
229 1 0    -3.000730    -8.849020    21.232000 
230 2 0    59.979900    53.757200    20.830800 
231 2 0    -4.081050    -8.625740    21.407900 
232 1 0    -2.296910    -9.738670    21.980600 
233 2 0    -2.755280   -10.270700    22.816600 
234 3 0    -3.235120    -7.540140    19.209500 
235 2 0    -5.507050    -7.526160    19.601900 
236 1 0    -0.384060   -12.406400    21.991400 
237 1 0    -0.905350    -9.990470    21.747700 
238 1 0     0.516610   -12.822300    20.971300 
239 2 0    58.628500    51.882300    19.185900 
240 1 0    -1.054830    -8.520590    19.885200 
241 2 0    -2.000660   -13.045800    23.319700 
242 2 0    -5.804910   -12.906300    24.714400 
243 2 0    -0.792500   -10.999300    23.667700 
244 2 0    -0.645870    -7.919080    19.032900 
245 1 0    -0.287970    -9.357150    20.648800 
246 1 0    -0.302300   -11.033600    22.671400 
247 2 0    -2.627130    -8.520380    24.740100 
248 1 0    -1.306770   -13.355700    22.521800 
249 2 0    59.711300    52.110900    22.224600 
250 2 0    -3.239670   -12.126200    24.782000 
251 1 0    59.941700    51.277500    21.586700 
252 1 0    58.236300    50.984800    19.670200 
253 2 0     0.803620   -10.858400    22.742100 
254 2 0    -3.166170   -14.176500    25.390600 
255 2 0    60.451500    50.550900    22.229100 
256 1 0    58.753100    50.587700    20.942800 
257 3 0    -5.020050   -10.785900    24.908900 
258 2 0     0.800850    -9.449430    20.448600 
259 1 0     0.383930   -14.148800    20.461300 
260 2 0     1.086130   -14.459900    19.687500 
261 2 0     0.399990    -9.013110    24.277200 
262 1 0    -5.523940   -12.068700    25.326500 
263 2 0    -0.801110    -7.412310    23.272800 
264 2 0    -4.171210    -8.255340    23.980700 
265 1 0    -3.339970    -7.730600    24.478400 
266 1 0    -1.371510   -14.617200    22.028900 
267 1 0    -4.017900   -11.622400    25.440700 
268 2 0    -0.306420   -14.358300    25.146800 
269 1 0    -4.552360    -7.015580    19.679100 
270 1 0     0.734340   -14.605700    25.358400 
271 2 0     1.455640    -9.835650    18.701800 
272 2 0     2.129200    -9.080110    23.966000 
273 2 0     1.330620   -12.206700    20.634000 
274 1 0     1.405270    -8.822880    24.732700 
275 2 0     1.330710    -7.745740    24.972700 
276 1 0     1.558850   -10.789000    18.114600 
277 2 0     4.997130   -10.730800    18.141100 
278 1 0     1.770380   -13.462000    25.236000 
279 2 0     3.985930    -9.461230    18.134500 
280 1 0     3.023460   -11.340500    18.309400 
281 2 0     6.386190    -9.732860    18.717500 
282 1 0     4.112260   -10.418700    18.726600 
283 1 0     6.367260    -9.357110    19.756100 
284 2 0     2.977420   -12.282300    18.907200 
285 3 0     4.133400   -10.348300    20.225200 
286 1 0     5.329970    -9.658920    20.635900 
287 1 0     5.432790    -9.226230    21.961600 
288 2 0     4.569070    -9.390900    22.591900 
289 2 0     4.903510   -11.747300    22.546600 
290 1 0     3.668770   -12.510000    24.183000 
291 1 0     6.477400    -8.516840    22.436600 
292 2 0     6.583890    -8.113780    23.418800 
293 2 0    66.783200    57.491400    19.977400 
294 2 0    66.505400    57.484900    22.339000 
295 1 0     7.468760    -8.537070    20.136800 
296 1 0     7.539050    -8.166780    21.502900 
297 1 0    67.403400    58.025500    21.929900 
298 2 0     4.014170   -14.349700    18.109100 
299 1 0    67.562200    57.990800    20.571100 
300 1 0     4.950310   -12.528900    23.302200 
301 2 0     3.857000   -10.419700    24.461800 
302 1 0     3.247740   -11.307500    24.740000 
303 2 0     9.142830    -8.261700    22.861800 
304 2 0     5.022320   -13.418500    22.775200 
305 1 0     2.903190   -13.665900    24.433900 
306 2 0     7.216890   -12.450300    23.527500 
307 1 0     6.286180   -12.398800    24.143400 
308 2 0     6.341390   -13.104000    24.958700 
309 2 0     6.335310   -11.389300    24.596200 
310 1 0     2.082470   -11.123100    25.509400 
311 2 0     8.271380    -8.326150    19.364200 
312 1 0     8.657100    -7.500250    22.263800 
313 2 0     3.330270   -14.847300    21.965000 
314 3 0     8.833580    -9.289100    25.606100 
315 2 0    69.120700    57.850100    18.047800 
316 2 0     6.225720    -9.008510    25.581800 
317 2 0     9.478880    -7.278350    21.628800 
318 1 0    49.801400    57.811000    21.307600 
319 2 0   -15.057600    55.627500   -39.837500 
320 4 0    48.910300    58.111500    18.920500 
321 2 0    48.172800    56.377100    20.901100 
322 3 0   -17.469000    54.879800   -40.937100 
323 2 0    47.634700    57.915200    21.668600 
324 1 0   -17.122900    55.433600   -39.650000 
325 2 0    48.476900    56.703600    22.660500 
326 1 0    48.422200    57.141100    21.653200 
327 2 0    49.628400    50.916800   -43.155200 
328 1 0    49.869100    50.758200   -41.028800 
329 2 0    48.960700    51.338800   -40.835500 
330 2 0    49.331700    57.858500    23.808100 
331 1 0   -18.255800    54.402400   -39.762500 
332 2 0   -19.259300    54.776500   -39.463100 
333 2 0    51.169200    58.342200    17.520900 
334 1 0    51.464500    60.490900    18.076300 
335 2 0    50.403900    60.742200    17.965200 
336 2 0    51.881200    61.061900    18.917600 
337 2 0    54.198700    65.909800    18.387400 
338 1 0    51.735900    58.953000    18.238600 
339 1 0    51.310500    58.556900    19.646100 
340 1 0    55.778300    63.596700    18.070500 
341 1 0    55.967800    62.264500    17.912200 
342 2 0    52.797900    58.559400    18.068700 
343 2 0    57.250600    59.728700    17.513400 
344 2 0    -8.981530    59.551200   -41.193000 
345 1 0    52.326500    58.627300    20.595700 
346 2 0    54.182900    58.353900    22.642200 
347 2 0    53.385200    58.830800    20.309200 
348 1 0    52.059800    58.289600    21.931600 
349 2 0    -9.426670    60.001100   -43.647300 
350 1 0    53.140400    58.557500    22.947200 
351 2 0    51.964200    60.309500    23.352400 
352 1 0    54.945800    64.041300    19.125000 
353 1 0    55.245800    61.309000    18.692900 
354 1 0    54.241100    63.126700    19.959900 
355 2 0    53.555200    63.497500    20.733100 
356 3 0    55.268100    59.919900    18.517400 
357 2 0    53.758900    61.108600    20.255800 
358 1 0    54.374700    61.808500    19.674300 
359 2 0    56.126900    64.507500    23.403900 
360 1 0    57.197800    64.417700    23.328900 
361 1 0    53.049700    60.053000    23.355500 
362 2 0    53.521700    60.783600    22.618100 
363 2 0    53.355400    60.298000    24.349700 
364 3 0    -8.699400    61.530200   -39.872400 
365 2 0    -8.251850    61.330400   -43.541700 
366 1 0    -8.475530    60.350900   -43.251000 
367 1 0    -7.628670    61.116700   -40.809200 
368 1 0    -8.192120    60.039100   -41.734600 
369 1 0    58.070300    64.665800    24.434800 
370 2 0    57.113700    63.891300    21.285100 
371 1 0    57.798600    64.015800    22.125800 
372 2 0    56.669300    58.303900    19.281200 
373 2 0    -7.187550    61.872700   -41.501000 
374 2 0    57.927800    63.955300    19.281400 
375 3 0    -7.449050    59.456700   -42.784400 
376 1 0    54.641200    65.515900    19.321900 
377 2 0    53.886800    65.605400    20.100300 
378 2 0    -7.824110    58.895200   -39.466700 
379 2 0    -4.712450    -6.820290    20.710600 
380 2 0    58.893900    65.230400    19.623100 
381 2 0    63.936500    59.719900    17.978600 
382 3 0    -5.894710    -5.604470    18.240400 
383 1 0    -4.696760    -5.715250    19.008700 
384 2 0    -6.353420    -4.892720    20.392000 
385 1 0    59.449300    64.491100    24.276100 
386 1 0    -5.919820    -4.740740    19.401700 
387 1 0    59.133400    63.763200    21.875700 
388 1 0    59.022000    64.109800    19.488100 
389 3 0    59.651300    63.385400    20.578900 
390 2 0    60.765100    63.833400    18.199000 
391 1 0    59.688700    64.047500    18.090100 
392 2 0    -3.743070    -5.225940    18.743400 
393 2 0    -5.679540    -3.652830    19.356400 
394 2 0    -3.351610    -2.672030    20.104900 
395 1 0    -2.332400    -2.534170    20.424800 
396 2 0    -2.591570    -1.795320    21.179700 
397 2 0    -4.023540    -3.808640    22.038500 
398 3 0    -1.491400    -3.690160    20.782600 
399 2 0    -4.691350    -5.499960    23.486300 
400 1 0    -3.285160    -4.644250    22.208000 
401 1 0    -3.687030    -5.628260    23.097100 
402 1 0    -1.975750    -4.634890    21.743000 
403 1 0    -2.845390    -6.682730    23.559800 
404 1 0    -1.106970    -5.717690    22.116600 
405 2 0    -0.150260    -5.803990    21.660000 
406 1 0    59.949300    63.992800    23.035200 
407 2 0    60.983500    63.903700    22.899100 
408 1 0    -1.592320    -1.845650    19.285300 
409 1 0    65.970700    59.287900    18.223700 
410 3 0    -1.625390    -0.442110    19.199700 
411 1 0    -1.527350    -6.642990    23.013800 
412 1 0    -0.370010    -0.947340    19.680000 
413 2 0    65.975100    59.673000    19.232300 
414 2 0    60.121100    64.755900    25.056400 
415 2 0    -1.391960    -2.601650    18.469900 
416 2 0     0.576750    -0.997020    19.071800 
417 2 0    -0.100440    -1.190250    20.709300 
418 2 0    -6.622420    60.855000   -40.432600 
419 2 0     0.822420    -4.016760    22.965200 
420 2 0     0.699450    -2.792510    21.736800 
421 1 0     1.048050    -2.941750    22.732900 
422 3 0     1.235180    -1.838380    23.619500 
423 2 0     0.038920    -3.866760    25.018400 
424 1 0     0.787430    -4.460380    25.592300 
425 2 0     1.414020    -5.017130    24.917000 
426 3 0    68.036600    58.637400    24.149900 
427 1 0    68.260300    58.756100    22.765000 
428 1 0    69.146900    59.169300    25.018700 
429 2 0     6.631960    -1.912700    18.294600 
430 1 0     5.576610    -2.251120    18.315200 
431 1 0    67.203800    58.739300    17.787000 
432 1 0     9.201280    -6.037550    24.156700 
433 2 0    70.128800    60.182700    20.286000 
434 1 0     8.289820    -6.234670    23.054500 
435 2 0    70.032600    59.986800    22.662600 
436 1 0    69.270800    59.448000    22.104800 
437 1 0     7.169440    -4.227880    23.624700 
438 1 0     7.391510    -5.264410    22.668100 
439 1 0    69.419200    59.486800    20.704100 
440 2 0    69.168800    59.551600    17.963200 
441 1 0    68.616500    58.713800    18.379400 
442 1 0    68.590600    58.703900    19.899200 
443 2 0     6.853350    -5.355370    21.703500 
444 1 0     4.743600    -1.927600    19.373400 
445 1 0     3.359760    -2.161050    19.361700 
446 1 0     3.124180    -1.612120    21.788900 
447 2 0     6.369830    -3.518100    23.418300 
448 1 0     8.022990    -3.900510    24.629300 
449 1 0     9.033420    -4.858000    24.893200 
450 2 0     5.225610    -1.485160    20.296400 
451 2 0     6.741920    -1.215860    24.329700 
452 1 0     2.840050    -2.814870    18.211100 
453 3 0     2.532350    -2.066050    20.506800 
454 2 0     1.799070    -3.093270    18.267100 
455 1 0     6.776860    -1.787440    25.240500 
456 2 0     5.739860    -2.194620    25.241200 
457 2 0     4.222820    -1.662200    21.914900 
458 1 0     2.463800    -2.301050    23.010400 
459 2 0     3.191320    -2.828230    23.609200 
460 2 0     3.170660    -0.535390    22.013900 
461 2 0    70.118400    58.914600    24.758300 
462 2 0    69.434200    60.220500    25.047500 
463 3 0     7.886790    -2.656410    25.366000 
464 2 0     9.976210    -6.708340    24.452200 
465 2 0    49.182500    58.257500    17.943800 
466 1 0    49.953800    58.172900    19.935000 
467 2 0    47.898400    58.412900    19.217400 
468 2 0    56.818800    66.509300    17.672300 
469 2 0    55.298200    66.595100    21.749600 
470 1 0    56.005500    66.873900    21.001300 
471 1 0    55.879300    66.358100    19.701100 
472 1 0    56.808000    66.805900    18.736600 
473 1 0    57.031500    67.735400    21.334300 
474 2 0    57.080800    68.026100    22.401800 
475 1 0    57.771800    67.707000    19.149200 
476 1 0    58.009300    68.151500    20.476700 
477 2 0    58.429600    68.022500    18.333600 
478 2 0    61.098000    68.488200    22.651600 
479 2 0    58.552500    69.086100    22.976500 
480 3 0    59.114000    69.005800    20.762400 
481 1 0    59.186100    69.483700    22.149700 
482 2 0    58.806300    70.473700    22.418300 
483 1 0    60.593400    69.483400    22.749200 
484 2 0    62.367200    70.549900    21.870000 
485 1 0    61.423200    70.795800    22.374800 
486 2 0    60.873200    71.481100    21.671300 
487 3 0    61.024900    70.426800    23.720200 
488 1 0    -7.322050   -25.064100    25.605400 
489 2 0    -7.119710   -24.941600    24.537400 
490 2 0    -0.400280   -24.180900    23.209400 
491 4 0     0.233310   -23.350600    23.236800 
492 2 0    -2.068760   -24.365200    22.172400 
493 1 0    -3.063390   -23.855900    24.081800 
494 2 0    -2.274930   -23.495600    24.763400 
495 1 0    -2.630500   -23.533400    22.620400 
496 2 0    -3.544150   -23.530300    22.072800 
497 2 0    -3.149130   -24.964600    24.233000 
498 2 0    -3.961650   -23.314600    24.432300 
499 2 0     1.260160   -23.134200    23.412800 
500 1 0    51.908100    49.648300   -40.355300 
501 1 0    55.352000    48.699100    17.539900 
502 1 0    51.258900    49.719700   -42.780800 
503 2 0    -8.016070   -15.998100    23.917400 
504 3 0   -10.259300   -15.957100    24.330800 
505 2 0   -10.208400   -16.575000    23.552600 
506 1 0    52.041100    49.297500   -41.657800 
507 3 0    51.535600    49.408800   -44.113300 
508 2 0    53.625200    45.282200   -44.551900 
509 1 0    53.927200    46.271300   -44.095400 
510 2 0    51.681500    46.658200   -43.806600 
511 2 0    54.662900    46.599900   -44.841100 
512 3 0    53.672800    46.848400   -42.790700 
513 1 0    52.669500    47.137300   -43.757000 
514 2 0    53.704900    48.854400   -44.202700 
515 2 0    52.836200    48.408500   -45.542200 
516 3 0    55.620500    48.452500    19.033000 
517 1 0    52.685800    48.513100   -44.458700 
518 1 0    56.634300    49.172100    19.683400 
519 1 0    -7.508410   -20.699500    25.157900 
520 2 0    56.766500    47.866200    21.426400 
521 4 0    -8.685870   -18.649000    24.164100 
522 2 0    -9.672170   -18.597400    23.822000 
523 2 0    52.929700    48.674500   -41.889600 
524 1 0    -8.615940   -20.049500    24.599100 
525 2 0   -11.145800   -20.032000    23.251400 
526 1 0    -9.781440   -20.888600    24.731700 
527 2 0   -11.812700   -21.237200    24.223100 
528 1 0   -11.168000   -20.407800    24.267300 
529 1 0    -8.797240   -16.061600    24.678700 
530 1 0    -8.503000   -17.550400    25.160700 
531 1 0    57.157900    48.796300    20.945000 
532 2 0    52.580900    49.206400   -39.639800 
533 1 0    -9.718390   -22.192500    25.232800 
534 2 0    -7.502090   -17.681900    25.525900 
535 2 0   -10.652700   -22.716200    25.261500 
536 2 0   -11.040400   -18.364600    25.172300 
537 1 0   -11.732000   -19.215700    25.107800 
538 2 0   -12.605100   -18.752300    24.590600 
539 2 0    -2.790340   -15.958700    18.125000 
540 1 0    -2.594240   -16.961900    17.738400 
541 2 0    -3.602120   -17.504900    17.874800 
542 2 0    61.866000    49.992300    19.817400 
543 2 0    -0.003900   -15.946700    18.567700 
544 2 0    -5.100160   -15.288000    24.719200 
545 1 0    58.165800    49.458900    21.570600 
546 1 0    -6.170980   -19.949700    25.042100 
547 2 0    -6.163900   -19.172000    24.255600 
548 1 0    -0.483070   -22.195100    22.834700 
549 1 0    -1.861530   -22.282200    22.399000 
550 2 0     0.580120   -17.235800    19.265000 
551 1 0    -4.301910   -15.990700    24.868400 
552 2 0    58.531000    49.027600    22.523800 
553 1 0    -2.475150   -21.206100    21.749400 
554 2 0    -3.555520   -21.313500    21.447800 
555 1 0    -1.234430   -17.664700    18.311600 
556 2 0    -5.265040   -20.622000    24.886400 
557 1 0    -0.375380   -16.766700    19.203200 
558 1 0    -0.610050   -15.054900    20.967100 
559 3 0    -1.022800   -16.341200    20.486600 
560 1 0     0.091490   -20.920500    22.656800 
561 1 0    -0.570150   -19.772400    22.126700 
562 1 0    -1.890920   -19.932300    21.553200 
563 2 0    -0.552470   -17.814800    21.741600 
564 1 0    -2.784140   -18.789700    21.167900 
565 2 0    -3.357520   -19.013600    20.318200 
566 2 0    -2.326640   -17.809300    21.020200 
567 1 0    -3.745540   -18.568300    22.367100 
568 2 0    -4.305810   -19.491300    22.608100 
569 2 0    -4.503370   -17.816200    22.157900 
570 4 0     0.089950   -18.540200    22.102400 
571 2 0    -2.087760   -15.325600    22.438000 
572 2 0    -3.195840   -18.335300    23.310500 
573 3 0    -3.043220   -16.054400    24.091700 
574 2 0    -1.384540   -18.666700    18.846200 
575 2 0    -1.683430   -19.215100    24.644300 
576 1 0     0.094840   -18.280900    25.387200 
577 2 0    -0.034450   -17.506900    24.574800 
578 1 0    -2.984640   -15.282200    25.281900 
579 1 0    -0.886640   -19.269100    25.398500 
580 2 0    -2.423560   -21.404800    25.331100 
581 2 0     1.031720   -18.471800    22.510400 
582 2 0     0.859000   -15.447100    24.556100 
583 1 0     3.523860   -15.296000    17.781700 
584 1 0     1.579280   -20.809700    23.000700 
585 1 0     2.668840   -17.532500    18.190900 
586 2 0     2.062420   -21.670500    23.337600 
587 2 0     2.233340   -20.352600    22.202700 
588 2 0     1.763190   -20.089900    23.823100 
589 2 0     1.833000   -15.527800    22.532600 
590 2 0     2.561100   -18.391600    18.856200 
591 1 0     3.317170   -16.343500    18.649600 
592 2 0     2.784140   -18.112100    20.779200 
593 2 0     4.351340   -18.024700    20.816800 
594 3 0     2.655750   -17.969600    23.299900 
595 2 0     2.634050   -17.559700    24.192000 
596 2 0     4.488130   -16.808300    22.809500 
597 1 0     2.891420   -15.543300    22.722700 
598 1 0     3.443380   -16.970800    22.494700 
599 1 0     3.545670   -17.317200    20.960000 
600 3 0     3.547260   -16.162500    20.087100 
601 4 0     3.295350   -15.029100    24.097300 
602 2 0     2.779410   -15.734100    24.664000 
603 2 0     5.472660   -17.223100    25.043000 
604 2 0     4.521110   -18.589900    25.581300 
605 2 0   -13.388700    55.197400   -38.905900 
606 1 0   -13.374500    55.814000   -37.906300 
607 2 0   -11.255100    56.178700   -37.972700 
608 1 0   -12.152700    56.332700   -37.460100 
609 2 0    55.995500    55.378900    25.843700 
610 2 0    53.916900    53.978200   -38.856000 
611 1 0    52.341200    52.546200   -38.703800 
612 1 0    53.413100    53.215000   -38.212600 
613 1 0    51.740400    51.549100   -37.898500 
614 2 0    55.306200    53.670100   -34.435300 
615 3 0    55.134300    53.669200   -36.663900 
616 1 0    53.969400    52.921400   -36.933800 
617 1 0    55.804900    53.416300   -35.389800 
618 2 0    53.652300    51.834100   -35.104900 
619 1 0    53.302600    52.004600   -36.114500 
620 1 0    52.195000    51.312500   -36.587200 
621 1 0   -12.112300    57.143200   -36.311500 
622 2 0    56.019900    52.362900   -35.094600 