#DETDA molecule
936 atoms
4 atom types

-1.5000000000000000e+01 5.0000000000000000e+01 xlo xhi
-1.5000000000000000e+01 5.0000000000000000e+01 ylo yhi
-1.5000000000000000e+01 5.0000000000000000e+01 zlo zhi

Masses

1 12
2 1.008
3 15.999
4 14

Atoms

1 2 0   -10.013100    -8.735100     7.143290 
2 1 0   -10.411900    -9.394870     7.892320 
3 2 0   -11.298200    -9.808450     7.373480 
4 2 0    -9.862230   -10.338000     7.992910 
5 1 0   -10.652900    -8.651930     9.243270 
6 2 0   -11.343100    -7.743160     9.119200 
7 2 0    -9.577040    -8.334820     9.493500 
8 4 0   -12.268400    -7.469160    11.232200 
9 2 0   -13.315000    -8.747940    14.152500 
10 2 0   -14.362900    -8.311060    12.687700 
11 1 0   -12.122700    -8.896440    11.290200 
12 1 0   -11.264300    -9.492710    10.300500 
13 1 0   -13.828600    -9.128630    13.162800 
14 2 0   -14.551400    -9.921310    13.511900 
15 3 0    54.478400    57.110600    14.080300 
16 1 0   -11.018400   -10.843300    10.419900 
17 1 0   -11.451800   -11.548000    11.549200 
18 1 0   -12.702000    -9.665020    12.325500 
19 1 0   -12.226100   -10.965300    12.597600 
20 4 0   -12.630900   -11.726600    13.747500 
21 2 0   -11.786600   -12.318800    14.086100 
22 2 0   -13.191700   -11.111600    14.382600 
23 2 0    55.163200    53.012600    16.655900 
24 2 0    54.009100    53.993200    16.367100 
25 1 0    51.722600    56.887700    16.487600 
26 2 0    55.788800    54.696000    15.057600 
27 1 0    53.306300    51.955600    16.330600 
28 2 0   -10.398300   -11.314200     9.693760 
29 2 0    55.008000    51.416600    15.242700 
30 3 0    54.025000    51.527300    15.054900 
31 2 0   -10.282600   -13.018400    12.553300 
32 2 0   -10.304400   -13.296800    10.844900 
33 1 0   -10.956000   -12.924500    11.712700 
34 2 0    52.283700    52.273600    16.329000 
35 2 0   -12.697800   -13.980600    12.732800 
36 1 0   -12.158300   -13.952900    11.796800 
37 2 0   -12.948800   -13.838800    10.958100 
38 1 0    56.680800    54.956700    14.514200 
39 2 0    56.448100    55.102200    13.420200 
40 2 0   -11.819600   -14.943900    11.659200 
41 1 0    54.132100    53.055800    17.051100 
42 1 0    57.970100    54.092400    14.965300 
43 3 0    57.871700    55.497600    15.103900 
44 2 0    -9.556550    -7.736000    14.088300 
45 3 0    50.697500    55.945100    16.198300 
46 1 0    53.323600    50.818200    17.394500 
47 1 0    57.899000    53.120100    16.099300 
48 2 0    57.790300    57.613100    16.003500 
49 2 0   -13.179500    -7.280640    11.816100 
50 2 0    55.509600    58.001000    16.647500 
51 2 0    56.918200    53.174800    16.615500 
52 2 0    55.577700    54.866100    17.389900 
53 1 0    52.678700    56.738600    17.475000 
54 1 0    50.529800    54.864400    17.185600 
55 2 0    51.421800    54.256500    17.266000 
56 3 0    58.390600    51.802000    15.606800 
57 1 0    58.209600    50.675500    16.439000 
58 2 0    58.549100    53.682900    14.133200 
59 2 0    58.357600    53.651800    16.990300 
60 1 0    -2.855700   -11.678400    16.090100 
61 1 0    -3.130340   -10.394300    16.524300 
62 2 0    -2.839730    -9.548260    15.924800 
63 1 0    -3.193920   -12.788500    16.870600 
64 2 0    -2.350020   -11.848300    15.175400 
65 1 0    -3.000890   -14.225200    16.371500 
66 2 0    -3.947840   -14.829000    16.408700 
67 2 0    -2.670400   -14.219200    15.340500 
68 2 0    -0.544780   -14.419800    15.609400 
69 2 0    61.070400    57.811700    16.464700 
70 1 0     0.507840    -8.201830    15.762500 
71 2 0    -0.477170    -8.172750    15.279700 
72 1 0     0.562320    -7.710080    17.189200 
73 2 0    59.771400    57.438300    15.487600 
74 3 0    62.538900    57.807300    14.381100 
75 1 0    -0.713080   -14.953200    16.608900 
76 2 0     0.915230    -7.404540    15.152800 
77 2 0     1.125270   -10.253600    17.474400 
78 1 0     1.262560    -9.485610    15.422800 
79 2 0     1.578240    -9.149580    13.253200 
80 1 0     1.720900    -9.818900    14.150500 
81 1 0     2.446760   -10.976900    13.950200 
82 2 0     2.806020   -11.202200    12.921900 
83 1 0     2.814220   -11.829800    14.999200 
84 3 0     3.660360   -12.933100    14.793600 
85 1 0     1.470280   -10.419000    16.491200 
86 1 0     2.263490   -11.540400    16.261400 
87 2 0     6.924920    -9.615150    16.423300 
88 1 0     6.165520   -10.331600    16.775600 
89 2 0     5.225420    -9.858850    16.431500 
90 1 0     3.631580   -13.997300    15.838400 
91 2 0     4.082980   -13.679500    16.800100 
92 2 0     2.536460   -12.185500    17.048800 
93 2 0     2.668690   -14.248000    16.257600 
94 2 0     6.005850   -13.843500    14.831000 
95 3 0     6.335580   -11.668200    17.286800 
96 1 0     5.786780   -14.902100    14.842000 
97 1 0    49.345100    53.958100    16.930700 
98 2 0    49.006900    53.991100    15.882200 
99 1 0    51.654500    58.186300    15.970500 
100 2 0    51.021100    58.292600    15.063500 
101 1 0    52.303700    59.300700    16.488200 
102 1 0    56.207600    58.799500    16.724400 
103 2 0    52.113300    60.346600    16.072600 
104 2 0    54.770600    58.257400    11.479700 
105 1 0    53.779000    58.400700    11.920400 
106 2 0    52.754800    58.242400    13.743700 
107 1 0    53.854900    58.257200    13.469500 
108 1 0    57.542300    58.604800    16.364100 
109 2 0    53.692700    59.436200    11.626500 
110 3 0    55.939400    59.417400    13.523000 
111 1 0    54.549400    59.524400    13.941400 
112 2 0    54.258300    59.637700    14.977300 
113 2 0    53.863400    60.366600    13.581100 
114 1 0    55.797400    59.923800    17.419100 
115 3 0   -14.842800    59.165200   -52.029500 
116 2 0    55.272400    61.794700    14.814800 
117 2 0    55.406000    65.078200    15.964200 
118 1 0    55.586100    66.146300    16.099300 
119 1 0    56.312500    61.682300    14.505500 
120 1 0    56.757300    60.514400    13.840500 
121 1 0    57.153200    62.711100    14.756300 
122 2 0    56.744300    63.539700    15.277300 
123 1 0    57.977300    60.836400    17.100600 
124 1 0    58.101600    60.548400    13.480200 
125 2 0    57.766400    64.641600    17.384400 
126 2 0   -14.703200    61.387200   -51.685800 
127 1 0    53.361200    59.083300    17.406000 
128 2 0    58.689500    61.652300    17.209100 
129 1 0    58.480500    59.643100    16.538100 
130 2 0    58.428300    59.696000    12.857800 
131 2 0    60.037100    61.520700    13.278400 
132 2 0    59.015500    64.829100    14.812000 
133 1 0    58.533700    62.707100    14.354300 
134 2 0    60.181700    64.037200    13.773600 
135 2 0    62.985100    59.300300    16.023900 
136 1 0    62.846500    59.084200    14.939100 
137 2 0    63.192900    59.970600    14.367800 
138 1 0    60.437500    58.296100    15.774100 
139 1 0    59.007900    61.578800    13.720800 
140 2 0    60.826100    59.165400    13.798300 
141 1 0    61.367800    58.627400    14.620500 
142 1 0    59.518700    63.857500    14.611100 
143 1 0    60.320100    64.540900    16.899500 
144 1 0    60.322400    63.593600    15.880800 
145 3 0    59.870400    59.591400    16.309800 
146 2 0    61.299800    61.879900    15.074500 
147 1 0    61.211600    62.510300    15.928400 
148 1 0    62.075400    62.386300    17.030900 
149 2 0    59.629800    65.430600    16.925300 
150 2 0    62.829100    61.602900    17.032300 
151 2 0     2.455110    -6.685790    16.807300 
152 3 0   -15.048600    61.446500   -48.992900 
153 1 0   -15.184800    61.048300   -47.661000 
154 2 0   -16.160400    60.426500   -53.373100 
155 1 0   -15.071300    60.406200   -51.370100 
156 1 0   -16.044600    59.777100   -52.525800 
157 1 0   -15.841000    60.672400   -50.047600 
158 2 0   -16.288800    59.678600   -49.825900 
159 2 0   -16.856100    60.999900   -50.320000 
160 2 0   -17.061500    59.541300   -52.197500 
161 2 0   -16.705600    59.445500   -47.866400 
162 3 0    56.873700    66.802600    16.060700 
163 1 0    56.463900    66.363900    17.353700 
164 2 0    54.579400    66.666100    16.147800 
165 2 0    54.468200    45.670100    15.813200 
166 1 0    54.522100    45.881800    16.837600 
167 2 0    55.433700    45.470300    17.230000 
168 2 0    58.104600    49.341900    14.801600 
169 2 0    58.117200    47.294900    15.866900 
170 2 0    53.722500    45.399300    17.452800 
171 2 0    55.326100    47.963500    16.524500 
172 1 0    58.124000    48.184300    16.520700 
173 2 0    52.757400    49.940300    17.013700 
174 2 0    53.579100    47.755000    16.652200 
175 1 0    54.548000    47.403100    17.102400 
176 1 0    -1.970900   -15.000100    17.190500 
177 1 0    58.174100    49.388100    15.873100 
178 1 0     0.257510   -15.564200    17.373300 
179 2 0     1.276970   -15.548600    16.937600 
180 1 0     4.315740   -15.268100    15.368300 
181 2 0     3.709540   -15.830400    14.627000 
182 2 0     5.870330   -15.250600    13.826800 
183 2 0     3.018430   -19.068400    15.860500 
184 3 0     5.512080   -15.734100    15.992100 
185 2 0     1.320870   -17.799500    17.146600 
186 1 0     3.287450   -18.874700    16.897100 
187 2 0     4.282910   -18.327600    16.896500 
188 2 0    52.681700    55.706100    17.895200 
189 2 0    52.685500    51.222300    18.230200 
190 2 0    57.040200    56.658300    18.319000 
191 1 0    55.566700    55.084000    18.448900 
192 3 0    53.936100    53.242000    18.467400 
193 1 0    56.348100    56.124700    18.983100 
194 1 0    54.671900    54.258100    19.123900 
195 1 0    56.176900    56.420400    20.351600 
196 1 0    54.664500    54.492000    20.519900 
197 2 0    54.090500    53.826800    21.185000 
198 1 0    55.317600    55.589800    21.103600 
199 1 0    56.892900    57.526700    21.082200 
200 2 0    55.123000    55.720500    22.149500 
201 2 0    54.378200    51.737200    20.044600 
202 2 0    55.207900    51.422500    21.570400 
203 2 0    56.187500    51.514100    20.153900 
204 1 0    55.199500    51.153700    20.477900 
205 1 0   -12.176900    52.756800   -40.621900 
206 1 0   -12.621500    54.158900   -40.865500 
207 3 0   -12.676400    54.542000   -42.289000 
208 2 0    55.081200    51.067900    18.032600 
209 2 0   -12.334800    52.373700   -42.771600 
210 2 0    57.236300    57.202100    22.148300 
211 2 0   -13.647500    56.448100   -40.608500 
212 1 0   -13.186700    55.804500   -42.582800 
213 1 0   -13.772700    56.661100   -41.638200 
214 3 0   -10.899300    52.286200   -41.087300 
215 1 0   -14.361500    57.895600   -41.882400 
216 2 0    -8.396570    -9.927080    24.834400 
217 1 0   -13.286600    56.325100   -43.913300 
218 2 0    -8.207590   -12.274700    24.080000 
219 1 0    -7.729820   -10.674700    25.343100 
220 2 0   -12.926300    55.664800   -44.724600 
221 1 0   -13.918300    57.496100   -44.239000 
222 2 0   -12.608700    50.928100   -41.902300 
223 1 0   -11.972000    51.847000   -41.936000 
224 2 0    -7.077650   -10.627300    22.881900 
225 2 0    50.390900    55.158000    18.284900 
226 2 0    54.269700    58.060900    22.190600 
227 2 0   -12.054000    54.842800   -40.200800 
228 2 0   -13.520100    54.246500   -40.208400 
229 2 0    -8.067540   -11.107900    20.673300 
230 1 0    -7.661460   -12.019000    24.959000 
231 4 0    54.641700    50.175200    17.693100 
232 2 0   -12.718000    52.294100   -39.766200 
233 2 0    57.818700    57.726500    20.659200 
234 2 0   -14.085900    57.756800   -45.288100 
235 1 0    -7.043390   -11.445500    20.802700 
236 1 0    53.550100    57.745400    17.889600 
237 2 0    54.350900    57.510300    18.599500 
238 2 0    54.922100    50.178500    22.682000 
239 2 0    -8.002820   -14.487800    23.585900 
240 3 0    -6.715280   -12.546300    21.653200 
241 1 0    -3.713540   -10.145300    17.742200 
242 2 0    -5.266240    -8.109310    24.610800 
243 3 0    -4.047690    -8.778380    18.009900 
244 1 0    58.141800    50.611000    17.856100 
245 2 0    58.181100    51.525500    18.497600 
246 2 0    -1.327230    -8.586680    17.948300 
247 2 0    -6.330350   -11.036500    20.083600 
248 1 0    -3.827450   -12.558200    18.125300 
249 1 0    -4.036440   -11.246400    18.567400 
250 2 0    -4.158920   -13.342900    18.758000 
251 2 0    -4.524670   -11.091600    19.510600 
252 1 0    -4.829630    -8.591780    19.238500 
253 2 0    -5.844000    -9.066540    19.284400 
254 1 0    -6.461200   -11.295700    22.302200 
255 1 0    -5.020610   -10.954600    22.676200 
256 3 0    -4.612620    -9.508810    22.453500 
257 2 0    -2.177990   -13.862000    22.715900 
258 2 0    -0.972600   -10.709200    19.405100 
259 1 0    -1.558430   -11.102900    20.272700 
260 2 0    -4.373980   -11.725700    22.195700 
261 2 0    -4.791390   -11.456000    23.646400 
262 2 0    -4.435250   -14.076600    21.518600 
263 1 0    -3.335540    -9.196710    22.912600 
264 2 0    -2.870540   -11.034500    23.945200 
265 1 0    -2.474500   -10.073100    23.625000 
266 3 0    -2.121810   -12.426000    20.276300 
267 2 0    -1.867450   -10.221700    20.837900 
268 1 0    -1.174020    -9.782830    23.980600 
269 2 0    -0.502510   -10.507100    24.527900 
270 1 0    -2.759100   -14.287300    24.747800 
271 3 0    -2.810930   -12.903600    25.185300 
272 1 0    -0.902420   -12.298100    21.039900 
273 2 0     0.173520   -13.916400    20.013900 
274 2 0    -0.792520   -12.087700    22.130300 
275 2 0    -4.420250    -8.899500    20.180500 
276 1 0    -0.674780    -8.519880    23.632000 
277 1 0    -2.730500    -7.982340    22.519600 
278 1 0     0.418110   -12.960700    20.612800 
279 2 0     0.711080   -12.475700    19.693200 
280 2 0     0.792670   -10.402900    21.825600 
281 1 0    -0.451580    -7.953550    18.145400 
282 2 0    -1.081050    -7.640510    20.147800 
283 1 0    -1.465630    -7.626260    22.853100 
284 1 0    -0.317020    -7.433160    19.391500 
285 1 0     0.793920    -8.161240    23.826900 
286 2 0     1.163240    -8.537800    24.802200 
287 2 0    -3.371810    -7.318680    21.940500 
288 2 0    -3.064430    -6.999390    24.630100 
289 2 0     0.881190    -7.070300    23.914300 
290 2 0    -5.204450   -14.202700    23.092400 
291 2 0    58.846100    58.064000    23.342100 
292 1 0    -5.114430    -7.070170    19.411700 
293 1 0    -2.934480   -14.472100    23.222600 
294 1 0    -4.347740   -14.574800    22.497000 
295 2 0    -1.878380   -14.845700    25.080400 
296 1 0    -6.835350   -12.950200    25.623600 
297 1 0    -4.790890    -7.823940    25.535600 
298 1 0    -3.537830    -7.221260    25.582900 
299 3 0    -6.708540   -14.335600    25.411800 
300 3 0     1.366300   -13.059000    21.728000 
301 2 0     6.981650   -10.362900    18.935100 
302 1 0     6.137870   -10.742200    18.346400 
303 1 0     3.445330   -13.820400    22.622100 
304 2 0     3.084250   -13.565400    23.573000 
305 1 0     2.622010   -13.645600    21.498900 
306 1 0     4.690920   -14.391600    22.531500 
307 1 0     3.112080   -14.025200    20.233900 
308 1 0     2.626980    -9.881160    20.893200 
309 2 0     2.498050   -10.668000    20.138900 
310 2 0     4.049010   -10.604900    18.314400 
311 1 0     4.818280   -10.581300    19.078100 
312 2 0     2.501460   -13.982100    19.360200 
313 2 0     4.556620   -11.522600    19.573200 
314 1 0     1.658240    -9.718430    21.837200 
315 2 0     6.122140   -11.879100    23.318000 
316 2 0     4.379660   -11.334200    23.163500 
317 2 0     5.054410   -12.411200    24.530200 
318 1 0     5.242440   -11.538500    23.897600 
319 3 0     4.870850    -9.341470    19.920300 
320 1 0     3.802090    -9.103690    20.797600 
321 1 0     3.916520    -8.068420    21.733800 
322 1 0     1.778250    -8.650450    22.778400 
323 1 0     5.555000   -10.329100    24.921200 
324 1 0     5.179930   -14.782900    21.260300 
325 2 0     8.036070   -12.969800    22.903700 
326 1 0     9.125650   -12.883900    22.589400 
327 2 0     9.185800   -10.912600    21.912400 
328 1 0     4.371670   -14.597000    20.119300 
329 2 0     7.351400   -14.543400    21.411200 
330 2 0     6.365820   -10.642700    25.592200 
331 1 0     2.945960    -7.868710    22.692700 
332 2 0     5.962770    -9.466750    24.425500 
333 2 0     5.790370    -7.966330    25.428300 
334 2 0     3.140780    -7.027100    23.335300 
335 2 0     4.807320    -7.400470    21.618900 
336 2 0     4.735040   -14.946300    19.130300 
337 1 0     4.205360   -10.087800    25.617300 
338 3 0     9.161000   -11.191100    24.165300 
339 1 0     9.236870    -9.854200    24.643800 
340 1 0     1.643590    -6.890060    17.522700 
341 2 0     5.387410   -14.517400    23.404800 
342 1 0     9.164100    -7.176990    25.616200 
343 1 0     9.580640   -11.476900    22.732600 
344 2 0     9.447550   -14.270800    24.153500 
345 3 0     9.937330   -13.861600    21.918800 
346 2 0    10.252800    -8.924060    22.891000 
347 1 0    10.080400   -13.860600    23.357500 
348 1 0     9.771790    -8.800450    23.931900 
349 1 0     9.802680    -7.497490    24.401200 
350 2 0    10.656700   -11.586200    22.447200 
351 2 0    10.936100   -13.531200    23.961200 
352 3 0    49.189100    52.818600    17.770100 
353 2 0    48.330200    54.613900    18.853400 
354 1 0    48.231300    53.825700    18.035100 
355 2 0    47.166900    53.882200    17.668900 
356 1 0    56.726200    61.020300    17.590000 
357 2 0    56.153500    64.392800    18.018900 
358 1 0    56.999600    65.110100    18.041000 
359 1 0   -14.451500    58.306000   -43.199100 
360 2 0    53.982600    61.175200    17.698600 
361 2 0    56.334200    61.980700    17.958800 
362 3 0    53.511200    65.108100    18.293600 
363 1 0    54.323700    60.134100    17.863100 
364 1 0    53.721700    65.869600    19.497100 
365 2 0   -14.786300    58.524100   -41.059700 
366 2 0    54.633200    66.084700    20.121700 
367 2 0    52.402400    64.175200    20.090900 
368 1 0    53.319300    64.370800    19.550700 
369 3 0    56.572800    58.850200    24.309000 
370 2 0    51.766700    62.088700    23.406700 
371 2 0    55.060600    63.211100    19.325400 
372 1 0    54.440300    63.537300    20.160400 
373 1 0   -14.272200    61.605500   -46.748700 
374 2 0   -13.542400    62.371800   -47.099200 
375 2 0    54.323400    60.176100    18.987500 
376 2 0    55.092600    64.301400    20.593400 
377 1 0    54.814600    58.948900    21.682400 
378 2 0    56.788800    62.153500    20.576100 
379 3 0    53.962300    62.547800    21.085600 
380 2 0    53.265900    60.231400    22.183700 
381 1 0    56.088200    58.851300    21.102700 
382 1 0    54.183400    60.176100    21.606200 
383 1 0    54.776900    61.362200    21.193000 
384 1 0    56.733200    60.038100    20.686900 
385 1 0    56.113500    61.274900    20.824100 
386 1 0    52.011500    61.944800    24.516600 
387 2 0    52.929200    63.933700    23.188700 
388 2 0    53.983700    65.938600    22.758300 
389 1 0    53.388600    63.944000    24.160700 
390 1 0    54.690200    65.970700    23.579700 
391 1 0    54.400300    64.795700    24.558800 
392 1 0    50.729800    62.187700    25.312300 
393 1 0   -14.272500    61.248200   -45.438500 
394 2 0   -13.554400    61.787500   -44.825700 
395 1 0    53.122700    62.839600    25.043200 
396 2 0    52.286700    60.865500    24.512600 
397 1 0    57.705900    59.634100    24.086100 
398 1 0    57.656900    61.046300    24.298900 
399 2 0    54.065700    58.293000    23.869900 
400 1 0    54.150000    58.856400    24.793100 
401 1 0    55.410300    59.655300    24.805400 
402 2 0    55.274500    60.635600    24.310600 
403 2 0    57.770400    60.047200    20.367500 
404 2 0    56.780100    61.474300    24.795500 
405 3 0    57.506000    65.609800    19.365400 
406 2 0   -14.671100    60.465700   -42.878600 
407 2 0    56.675700    65.884000    25.059800 
408 2 0    55.709100    65.849900    23.123400 
409 3 0    52.980200    59.210900    25.568200 
410 1 0    62.079000    63.323000    18.119500 
411 1 0    61.225200    64.388200    17.935600 
412 2 0    61.334100    65.133700    18.706300 
413 1 0    58.576300    61.930700    23.830400 
414 2 0    58.440500    63.011800    23.871300 
415 3 0    62.940500    63.376300    19.226200 
416 1 0    63.819400    62.211800    19.491800 
417 2 0    -3.937770    -5.455380    18.287000 
418 2 0    -3.004860    -6.839710    18.747000 
419 1 0    -3.825420    -6.247060    19.011600 
420 2 0    63.341300    61.233200    19.685600 
421 2 0    64.546100    61.883000    18.706100 
422 3 0    64.165800    61.834800    21.972900 
423 2 0    -5.931340    -6.711970    18.764000 
424 1 0    58.995200    65.358100    21.205600 
425 2 0    58.492400    62.977200    18.855200 
426 1 0    58.898300    59.155300    23.519000 
427 1 0    58.374500    64.789800    20.076800 
428 1 0    59.819100    64.760300    22.092800 
429 1 0    59.901000    60.023500    23.120800 
430 2 0    60.820400    59.648800    22.604600 
431 1 0    59.782900    61.417200    23.232400 
432 3 0    -4.371880    -6.246970    20.330300 
433 1 0    58.789900    63.478900    19.775400 
434 2 0    61.604500    61.892200    22.128400 
435 2 0    61.293500    62.979900    23.619600 
436 1 0    60.824300    62.412000    22.742900 
437 1 0    60.071100    63.371100    21.815700 
438 1 0    59.629200    62.765900    20.637100 
439 2 0    59.920200    61.714200    20.431700 
440 1 0     0.767090    -6.658970    19.791000 
441 3 0     0.719720    -6.167930    21.124600 
442 2 0     0.183190    -5.027830    23.159700 
443 1 0     1.216370    -4.694420    22.916000 
444 2 0     0.720360    -2.861260    23.975500 
445 2 0    -1.135990    -6.661830    22.536000 
446 1 0    64.560000    62.596500    20.809700 
447 2 0    65.575400    62.891800    20.658200 
448 1 0    63.816100    63.279400    21.938900 
449 2 0    62.842600    63.704500    21.669000 
450 2 0    64.310200    64.091100    22.355900 
451 2 0    -1.953480    -5.308110    24.876600 
452 2 0    60.243800    65.283300    22.927100 
453 2 0    -0.288820    -5.587840    25.241300 
454 1 0     1.619900    -5.011350    21.483700 
455 1 0     1.608260    -3.340130    23.561000 
456 2 0     1.548120    -4.047720    20.955500 
457 1 0     1.712490    -6.335230    18.797900 
458 2 0     2.088720    -2.647580    22.892500 
459 3 0     2.229920    -4.587780    23.928100 
460 2 0     2.710350    -5.076270    21.501800 
461 2 0     2.579590    -5.719070    19.104700 
462 2 0     8.829460    -2.578480    22.631500 
463 3 0     2.762510    -1.246400    21.676000 
464 1 0     3.678100    -0.223270    22.007000 
465 2 0     4.308740    -3.709550    22.125700 
466 2 0     3.785990     0.610360    21.274800 
467 1 0     4.113480    -1.695790    21.481300 
468 2 0     4.695040    -1.680810    20.544200 
469 2 0     4.202740    -2.635880    23.336000 
470 1 0     4.757910    -2.743290    22.392500 
471 3 0     6.229740    -2.567160    22.354700 
472 1 0     7.001750    -3.424450    23.184400 
473 1 0     8.366840    -3.291850    23.230300 
474 2 0     5.332250    -4.544310    23.883200 
475 1 0     6.419480    -4.433780    24.027300 
476 2 0     3.874490     0.117690    22.992900 
477 1 0     7.139000    -5.054490    25.059600 
478 1 0     9.201750    -4.029240    24.076900 
479 1 0     8.553560    -4.895500    25.025700 
480 2 0    10.247000    -3.803960    24.178600 
481 2 0    10.513000    -6.794420    23.846400 
482 2 0    49.926300    62.572300    24.668000 
483 2 0   -16.508600    58.623300   -45.694200 
484 1 0   -15.093700    60.170100   -44.962000 
485 1 0   -15.950800    59.960700   -47.210000 
486 2 0   -16.138000    59.706200   -43.104800 
487 1 0   -15.089000    59.687100   -43.558700 
488 1 0   -15.899100    59.525900   -45.917500 
489 2 0    55.945500    67.001300    18.116600 
490 2 0    52.990700    66.558200    19.846800 
491 2 0    53.782500    67.581000    24.975400 
492 1 0    54.674200    67.342900    24.306500 
493 2 0    54.961800    68.170500    23.715300 
494 2 0    55.392500    67.394000    25.058000 
495 2 0    58.632300    66.326400    21.455500 
496 1 0     6.246170   -23.416800    25.354800 
497 2 0     6.958760   -23.987700    24.734400 
498 1 0    54.972500    49.640300    20.138500 
499 4 0    54.776900    49.138300    22.574600 
500 2 0    55.262100    48.337400    23.197400 
501 1 0    54.792500    49.252800    18.789500 
502 1 0    54.940500    48.754800    21.209200 
503 1 0    54.641700    47.858900    18.546400 
504 1 0    54.889600    47.339000    20.914700 
505 1 0    54.725900    46.921500    19.581100 
506 2 0    53.940900    45.961100    22.300300 
507 1 0    54.963500    46.263800    21.962400 
508 2 0    55.125700    44.355400    20.784500 
509 2 0    56.023000    44.340600    22.298100 
510 1 0    55.735000    45.009900    21.459500 
511 2 0    56.702900    45.286200    20.943000 
512 2 0    55.365700    46.607100    22.878300 
513 2 0    54.731300    45.873500    19.309800 
514 2 0    57.220400    46.693500    19.235400 
515 3 0    -7.881060   -17.547600    24.027000 
516 2 0    -8.675380   -15.238300    24.827700 
517 1 0    -7.658120   -15.041300    24.472700 
518 2 0    57.968800    45.967300    17.851400 
519 1 0    -7.080240   -16.345300    24.074900 
520 1 0    -7.118080   -17.427700    25.237700 
521 2 0    58.239700    49.427700    19.647600 
522 2 0    -3.194000   -15.646700    18.882600 
523 1 0    58.171200    49.411300    18.569700 
524 2 0    -3.474810   -15.012000    25.116500 
525 1 0    -2.192560   -15.580800    18.484500 
526 2 0    58.370200    46.946500    21.392600 
527 1 0    58.128600    46.773200    18.602500 
528 3 0    -3.486160   -15.713500    22.817300 
529 1 0    -1.152650   -16.094500    19.215700 
530 1 0    58.186300    48.139000    17.953100 
531 2 0     0.415040   -17.678400    24.451200 
532 2 0    -1.298750   -16.523100    20.219100 
533 1 0     0.142060   -16.095900    18.671600 
534 3 0     1.162610   -16.695200    19.424200 
535 3 0    65.720400    43.739600    21.928800 
536 2 0    63.999900    43.450900    20.432300 
537 2 0    60.539700    46.633900    22.663600 
538 1 0    59.317800    46.706200    20.865000 
539 1 0    60.501400    46.505200    21.566500 
540 2 0    60.674300    46.200600    17.761600 
541 1 0    59.359700    46.534500    19.477000 
542 1 0    60.605300    46.216400    18.856200 
543 1 0    61.723100    46.089200    19.614900 
544 2 0    62.657400    45.887700    19.092800 
545 1 0    61.756500    46.170100    21.009100 
546 2 0    64.948400    46.118900    21.518700 
547 2 0    64.172700    45.972500    20.007100 
548 1 0    64.669800    44.126900    21.016500 
549 1 0    64.144000    45.578100    21.048900 
550 3 0    62.889400    45.804800    21.782200 
551 2 0    -0.052980   -21.049100    23.780600 
552 2 0    -1.091560   -16.358000    23.130900 
553 1 0    -0.180730   -15.699100    23.468900 
554 4 0    -0.558520   -20.631600    24.584200 
555 2 0    -1.530370   -20.198800    24.651200 
556 2 0    -1.421910   -17.769400    24.916400 
557 2 0     0.255140   -15.301800    22.551600 
558 3 0     0.257860   -15.361600    24.778000 
559 2 0    -6.101820   -16.208300    23.546800 
560 1 0     0.790490   -16.643400    24.300300 
561 2 0    -6.150060   -17.950200    25.441100 
562 3 0     4.942530   -22.971300    24.921700 
563 1 0    66.257300    44.082300    20.648700 
564 2 0     2.787790   -22.548300    25.233400 
565 2 0     2.523210   -21.426300    23.775900 
566 1 0     2.135810   -21.836100    24.732100 
567 2 0    66.490800    43.435500    19.804000 
568 2 0    66.699500    45.007100    20.379200 
569 1 0     2.247430   -18.064200    17.737100 
570 2 0     1.351990   -22.520100    24.355100 
571 1 0     2.485010   -16.970100    18.710200 
572 3 0     2.614640   -19.419700    18.050600 
573 1 0     5.939690   -21.960100    24.858200 
574 2 0     3.000440   -16.147100    18.109800 
575 1 0     6.606180   -15.327400    21.114300 
576 2 0     6.720290   -15.542500    20.032800 
577 1 0     2.182540   -16.661400    23.826000 
578 2 0     2.170800   -16.881800    22.680300 
579 2 0     4.672190   -17.341400    21.766500 
580 2 0     2.564610   -15.668700    23.487000 
581 2 0     3.417780   -17.312900    19.202200 
582 1 0     6.760620   -16.555600    21.984600 
583 1 0     8.024570   -16.819700    22.546100 
584 1 0     8.177620   -18.010800    23.208500 
585 2 0     8.863820   -16.179200    22.440400 
586 2 0     9.152820   -18.312800    23.563700 
587 1 0     5.702860   -17.462400    22.109500 
588 1 0     7.172140   -18.938600    23.465800 
589 3 0     7.352370   -20.250100    23.919200 
590 1 0     5.935570   -18.542300    22.943300 
591 2 0     6.543030   -22.119300    22.896100 
592 1 0     6.318330   -21.308300    23.553200 
593 2 0     5.084250   -19.188700    23.086500 
594 2 0     5.449940   -21.080900    23.005800 
595 3 0     2.993390   -17.483800    24.789200 
596 2 0    53.742200    57.089000    26.055800 
597 2 0    -7.490850    -8.105950    26.054400 
598 2 0   -11.347800    -9.989150    27.764800 
599 1 0   -10.977800    -9.571280    28.726300 
600 1 0   -10.177100   -10.325700    29.592700 
601 1 0    -9.997950    -8.415050    30.997700 
602 1 0   -11.254300    -8.245300    28.962800 
603 2 0   -11.843400    -7.743280    28.151300 
604 1 0   -10.653800    -7.601040    30.042000 
605 2 0    -9.559040    -7.931320    31.881200 
606 3 0    -9.843400   -11.707500    29.495800 
607 1 0    -9.756930    -9.723010    30.778300 
608 2 0    -9.251150   -10.312000    31.530400 
609 2 0    -7.285870    -8.468060    27.664500 
610 2 0    -9.645500   -11.869200    27.315400 
611 2 0    -7.256040    -7.914460    32.920900 
612 2 0   -11.144400   -12.208000    27.819800 
613 1 0   -10.139400   -12.303100    28.170700 
614 2 0    56.090800    51.295000   -33.071700 
615 1 0    56.877400    51.039400   -32.265800 
616 2 0    56.307800    50.229700   -31.676400 
617 2 0    57.367300    50.804700   -34.935600 
618 1 0    -9.788360   -13.761200    28.217500 
619 2 0    -8.698700   -13.918200    28.050900 
620 1 0    57.126100    52.260800   -31.405900 
621 1 0    -6.909940   -10.200400    26.374900 
622 1 0    58.078300    50.378000   -32.953400 