#DETDA molecule
936 atoms
4 atom types

-1.5000000000000000e+01 5.0000000000000000e+01 xlo xhi
-1.5000000000000000e+01 5.0000000000000000e+01 ylo yhi
-1.5000000000000000e+01 5.0000000000000000e+01 zlo zhi

Masses

1 12
2 1.008
3 15.999
4 14

Atoms

1 1 0    -8.040230    -8.651790    15.608800 
2 2 0    -8.259010    -9.087780    14.591600 
3 2 0    -8.926420    -9.019280    16.240800 
4 1 0    -8.012080    -7.119550    15.556800 
5 2 0    53.821900    57.901700    16.410200 
6 2 0    54.130300    56.583000    17.253000 
7 1 0    54.118900    57.648800    17.463100 
8 2 0    -7.011660   -13.181700    16.662800 
9 3 0    54.473300    54.432000   -47.814500 
10 2 0    52.529800    53.386300   -48.440600 
11 1 0    53.052600    54.151400   -47.919200 
12 2 0    52.307500    54.870800   -47.636700 
13 2 0    -6.802630    -7.100630    13.800900 
14 1 0    -6.771180    -9.341980    16.134500 
15 2 0    -6.820200   -10.415200    16.080400 
16 2 0    -5.944310    -8.966020    15.567400 
17 2 0    -5.610640    -9.178230    12.738200 
18 2 0    -4.185150    -9.020230    13.807800 
19 2 0    -4.461170    -8.734370    10.786600 
20 1 0    -4.578490    -9.507930    12.881400 
21 2 0    -1.989800    -8.379430    10.596500 
22 1 0    -3.789320    -9.120130    11.535600 
23 3 0    -3.853520   -10.437700    12.053500 
24 2 0    -5.630090   -11.888800    15.304400 
25 1 0    -4.607830   -12.083100    15.723200 
26 1 0    -3.578250   -11.886700    14.834900 
27 1 0    -1.964420   -12.187000    16.539800 
28 1 0    -2.214020   -12.054000    15.143300 
29 2 0    -3.781620   -11.621700    13.788600 
30 2 0    -1.824720    -8.683700    12.164800 
31 1 0    -2.549700    -8.197420    11.513700 
32 2 0    61.903700    57.014700    14.728000 
33 1 0    -4.348610   -12.525400    17.052100 
34 2 0    -0.411700    -7.391670    12.572800 
35 2 0    62.341700    55.140200    15.998600 
36 2 0    64.225700    57.073700    16.677100 
37 1 0    61.496800    56.997200    16.825300 
38 1 0    62.038100    55.548500    16.991500 
39 2 0    -6.413750    -8.951630    17.128100 
40 1 0    -1.042300   -11.851900    14.175400 
41 2 0    -1.443870   -11.481300    13.241900 
42 2 0    -0.565230   -12.866900    14.012500 
43 2 0    -0.535830    -9.227220    13.504400 
44 1 0     0.152560    -9.567430    14.272800 
45 1 0     0.041880   -10.919200    14.661400 
46 1 0    61.558200    57.631000    15.573500 
47 1 0     1.150610    -8.797480    14.833900 
48 2 0    -0.876780   -12.228800    16.884300 
49 1 0    -2.989890   -12.580200    17.372700 
50 1 0     0.883910   -11.435100    15.696700 
51 2 0     0.808130   -12.468100    16.027800 
52 2 0    61.256100    54.840300    17.345300 
53 2 0     1.321160    -7.738530    14.426700 
54 1 0     1.867600   -10.605200    16.193000 
55 1 0     2.087380    -9.284710    15.792300 
56 3 0     3.129780    -8.544490    16.333300 
57 2 0     4.549230    -9.072640    14.367300 
58 1 0     5.430910    -9.167180    13.720800 
59 1 0     7.152060    -9.440190    15.539400 
60 1 0     5.212870   -10.343400    16.861600 
61 2 0     5.043830    -9.626150    12.836900 
62 4 0     6.560070    -9.970560    14.361400 
63 2 0     2.508060   -11.111400    16.907700 
64 2 0     5.715330    -8.120660    13.426200 
65 2 0     7.419520   -10.074900    13.656000 
66 2 0     4.877220   -10.726200    15.889000 
67 1 0     6.535760    -9.527260    16.789800 
68 1 0     8.285800    -8.507440    15.634900 
69 2 0     4.382610    -9.825050    17.365700 
70 2 0     8.730480    -8.743430    13.521200 
71 1 0     9.189530    -8.408560    14.470300 
72 1 0     3.077930    -7.055150    15.925900 
73 2 0     5.147940    -7.180020    16.463100 
74 2 0     5.406020   -11.306100    17.368300 
75 1 0     8.638890    -7.940350    16.882100 
76 2 0    11.113900    -9.573530    13.939200 
77 2 0    10.165200   -10.322500    15.122400 
78 1 0    10.428700    -9.322240    14.810700 
79 2 0    10.900900    -9.039090    15.765600 
80 2 0     9.483920    -7.372520    14.154200 
81 2 0     9.612230    -7.381120    16.953500 
82 1 0    -7.342630    -6.495630    14.462200 
83 1 0    -7.917910    -4.216360    15.173700 
84 4 0    -7.758770    -2.795680    15.115300 
85 1 0    -7.272060    -5.131650    14.311800 
86 2 0    55.787600    64.235300    15.172300 
87 1 0    -8.685570    -4.892680    16.190800 
88 2 0    -8.365420    -2.480790    15.964800 
89 1 0    55.488100    65.107800    15.798600 
90 1 0    52.990300    61.251300    14.847000 
91 2 0    53.228700    60.378100    14.140300 
92 1 0    53.074400    62.535900    14.344000 
93 2 0    53.430000    62.715200    13.348900 
94 1 0    53.156800    65.071200    14.721600 
95 2 0    53.590500    65.098900    13.739400 
96 1 0    52.869700    63.637800    15.212400 
97 1 0    -8.722140    -6.283780    16.414100 
98 1 0    52.572900    60.969100    16.170200 
99 2 0    52.230400    65.592600    14.757800 
100 1 0    54.192700    65.664800    15.700400 
101 1 0    56.452500    65.733900    16.568700 
102 2 0    57.434200    65.306500    16.656800 
103 2 0    -9.700570    -3.056240    17.013000 
104 1 0    -9.301260    -4.027510    17.313400 
105 3 0    52.681000    59.615900    16.635800 
106 1 0    52.429500    63.454700    16.519600 
107 1 0    52.306100    62.114200    16.925600 
108 2 0    -6.923360    -3.542470    12.745400 
109 2 0    52.243600    64.240200    17.204500 
110 2 0    -6.772550    -5.871530    11.513200 
111 1 0    -5.955080    -5.438570    12.050300 
112 2 0    -5.306500    -6.216280    12.454000 
113 2 0    -5.333270    -4.929020    11.375000 
114 1 0    -6.421910    -4.449220    13.200500 
115 2 0    58.328000    63.921700    15.154500 
116 1 0    58.544300    62.886700    15.482300 
117 3 0    -2.967830    -6.775940    11.696500 
118 1 0    -0.699500    -6.316300    12.696000 
119 1 0    -2.004420    -5.930390    12.285000 
120 2 0     1.094400    -5.839760    13.796300 
121 1 0     0.137340    -5.432270    13.351400 
122 2 0    -5.573830    -3.962430    13.616600 
123 2 0    59.330100    62.513800    14.786700 
124 2 0    -3.367850    -4.242560    12.125400 
125 1 0    -2.386210    -4.576250    12.412900 
126 1 0    -0.310450    -4.155550    13.634500 
127 1 0    61.204500    58.954300    15.442400 
128 2 0    61.299300    59.380000    14.429900 
129 1 0    -1.594490    -3.722710    13.123700 
130 2 0    -1.978450    -2.690020    13.274900 
131 3 0    60.207400    60.998600    16.299500 
132 2 0    -1.653280    -3.534030    16.041300 
133 1 0    -0.709290    -3.740180    16.610600 
134 1 0    60.793100    59.743100    16.532000 
135 2 0     0.280800    -2.124760    14.433300 
136 1 0     0.518470    -3.668770    15.925700 
137 1 0     0.566380    -3.211940    14.459300 
138 1 0    58.932400    62.988800    17.002900 
139 2 0    59.712400    63.742500    17.075600 
140 1 0    59.568900    61.692800    17.464500 
141 2 0     1.582530    -3.237750    14.066000 
142 1 0     1.659690    -3.935630    16.700200 
143 2 0     2.870800    -6.793330    14.879700 
144 2 0     2.209480    -6.385390    16.156500 
145 2 0     2.662370    -3.973770    16.311200 
146 1 0     4.377630    -6.412660    16.357500 
147 3 0     4.534160    -5.176630    16.423800 
148 1 0    53.863100    66.833300    16.417600 
149 2 0    52.877200    67.207800    16.365500 
150 1 0    56.065600    66.815200    17.387300 
151 1 0    54.750800    67.324600    17.352000 
152 2 0    -3.215600   -23.387600    17.448000 
153 2 0    -1.730900   -18.533400    14.983800 
154 1 0    -2.852180   -17.711500    16.771900 
155 1 0    -3.037500   -16.399000    15.970700 
156 3 0    -3.586730   -18.869900    16.395700 
157 2 0    -3.919910   -16.524300    15.374600 
158 1 0    -2.182360   -18.898200    15.966400 
159 2 0    -1.406690   -19.496100    16.519400 
160 2 0    -5.114030   -21.992700    16.205600 
161 3 0    -1.750480   -15.993700    15.358300 
162 1 0    -0.740650   -15.650600    16.250200 
163 2 0    -3.408310   -15.818200    16.789100 
164 1 0     0.620400   -15.885700    15.896100 
165 2 0     0.860590   -16.332400    14.920300 
166 2 0    -2.547500   -21.988100    16.915600 
167 1 0    -4.784690   -21.838600    17.264500 
168 2 0    -4.861260   -20.741300    17.330500 
169 2 0    -6.308660   -15.440100    17.404700 
170 1 0     1.666860   -15.686200    16.803900 
171 2 0     2.728070   -15.839300    16.520600 
172 2 0    -7.422610   -12.032100    17.748000 
173 2 0    56.580500    56.431800    18.383500 
174 1 0    53.944700    53.674700   -46.717900 
175 2 0    54.198700    52.602800   -46.570000 
176 3 0    53.694800    53.434300   -44.225900 
177 1 0    53.838900    54.362200   -45.341800 
178 2 0    53.038900    55.038700   -45.555400 
179 1 0    53.820000    54.026800   -42.914300 
180 2 0    54.722500    55.126600   -45.294800 
181 1 0    53.586000    53.201500   -41.751300 
182 1 0    54.105900    55.355900   -42.660100 
183 2 0    54.199300    56.030400   -43.499600 
184 2 0   -13.407900   -14.158300    22.573100 
185 1 0    54.306700    55.900200   -41.379400 
186 2 0    54.591800    56.979300   -41.207600 
187 2 0    -7.797600    -7.915420    23.900400 
188 2 0    53.217700    52.183200   -41.866000 
189 2 0    56.356800    51.894100    20.821000 
190 2 0    52.184300    57.308800    18.313200 
191 1 0    56.335300    57.477900    18.660500 
192 1 0    53.612400    53.694300   -40.486500 
193 1 0    54.012800    55.034700   -40.297500 
194 2 0    57.340600    53.886700    23.520600 
195 1 0    56.208000    50.903200    21.331100 
196 3 0    53.537100    57.839500    19.906000 
197 1 0    53.024300    57.993100    18.501300 
198 2 0    57.600000    55.929900    22.186200 
199 1 0    57.972100    55.018500    21.810200 
200 2 0   -13.682700   -10.413800    20.784300 
201 2 0    51.891500    57.438600    23.203300 
202 1 0    51.545600    57.889600    24.128700 
203 1 0    56.990500    50.476700    22.424600 
204 1 0    57.734600    53.833100    22.535000 
205 2 0    50.146800    56.351900    24.378200 
206 2 0    55.758300    57.335000    19.570900 
207 1 0    50.536400    57.237700    24.821800 
208 2 0    53.284100    53.085100   -39.610500 
209 2 0    -7.278550   -13.475100    19.675300 
210 2 0    54.695400    50.564500    19.952100 
211 1 0    -7.467610   -13.791100    18.643900 
212 1 0    55.286700    50.072100    20.782600 
213 2 0    57.438500    57.373400    21.008100 
214 1 0   -14.086600   -13.486400    23.075900 
215 2 0   -13.791000   -12.075500    21.495500 
216 1 0   -14.331800   -12.299400    22.384900 
217 1 0   -14.616000    -9.844760    20.918800 
218 2 0   -13.637100    -7.958300    21.524700 
219 1 0   -14.300800    -8.325120    20.758600 
220 1 0    -7.674540    -6.892070    23.850200 
221 2 0    53.016900    51.141900    19.564000 
222 3 0   -14.632500    -7.681860    19.510300 
223 1 0   -14.874200   -13.743800    24.231800 
224 2 0    -7.807700   -14.823100    25.269400 
225 3 0    -8.378010   -14.785200    18.116700 
226 2 0    51.248100    51.058700    20.116800 
227 1 0    52.019900    50.637400    19.415200 
228 1 0   -13.115600   -14.884300    25.596700 
229 1 0   -14.611700   -14.998900    25.107100 
230 1 0    -6.692870   -12.935500    17.680000 
231 3 0    -5.251210   -12.916300    18.049900 
232 2 0    58.174500    51.565200    23.956900 
233 1 0    58.155700    51.350100    22.876500 
234 1 0    64.313000    56.527800    17.571200 
235 1 0    63.215600    55.694300    17.983400 
236 1 0    58.160700    57.441100    20.188900 
237 2 0    -2.654970   -12.944300    18.396000 
238 2 0    59.561800    53.846400    19.205100 
239 3 0    58.819700    56.188300    19.773700 
240 1 0    65.411500    56.687000    18.355800 
241 1 0    63.230700    55.180400    19.244400 
242 2 0    62.310300    54.650300    19.596700 
243 3 0    -5.609370    -8.818410    24.657800 
244 1 0    58.642900    55.051800    20.592600 
245 1 0    59.207000    53.830000    20.191700 
246 2 0    59.511900    51.674100    20.567800 
247 1 0    64.383100    55.384200    20.026900 
248 1 0    59.073700    52.619600    20.880400 
249 2 0    64.455000    54.792700    20.937000 
250 1 0    58.349600    52.668100    22.083100 
251 1 0    -5.161470   -11.135300    25.280300 
252 2 0    -2.937380    -8.932450    23.857000 
253 1 0    -2.621980   -11.121700    24.217400 
254 1 0    -3.327930    -9.919810    24.268800 
255 1 0    -4.673080    -9.886150    24.766700 
256 1 0    -4.398870   -12.296200    25.317400 
257 2 0    -1.700660   -11.075500    23.680900 
258 1 0    -3.101170   -12.366900    24.666600 
259 1 0    -2.265230   -13.616900    24.572400 
260 2 0    -1.150960   -13.506900    24.279200 
261 1 0    -2.999530   -14.633400    23.643700 
262 2 0    -2.434620   -13.518900    21.731800 
263 1 0    -2.966870   -14.354800    22.250500 
264 2 0    -0.219020    -9.771860    24.752400 
265 1 0    -5.058480    -7.567680    24.145000 
266 2 0    -4.535780    -7.534190    23.121900 
267 2 0    58.989600    50.623700    22.767900 
268 2 0    -2.218360   -14.015100    25.620900 
269 1 0    65.552200    56.022100    19.611500 
270 1 0     0.857610    -9.610200    24.778500 
271 2 0     0.483640   -14.221200    23.301900 
272 2 0    61.153500    57.396100    18.940100 
273 2 0     0.894020    -7.297610    22.136100 
274 2 0    65.010100    57.905200    24.288900 
275 2 0    58.851400    58.114500    20.730400 
276 2 0    58.331400    57.935500    18.083000 
277 1 0    61.134500    57.764300    17.939500 
278 3 0     1.155030   -11.812900    23.718500 
279 1 0     1.117680   -13.858800    22.445000 
280 2 0    -4.205340    -7.081770    24.684600 
281 2 0    62.533100    58.117600    21.711400 
282 2 0    -0.184570   -14.428200    19.464400 
283 2 0    -1.992190   -14.958800    17.821300 
284 1 0     0.051550   -14.850800    18.432800 
285 3 0     1.326800    -8.155850    24.877600 
286 2 0     1.565120    -9.829810    22.765700 
287 2 0    66.269800    57.264800    17.791200 
288 1 0     1.523250   -14.709100    21.417700 
289 1 0     1.425070   -12.506400    22.545200 
290 1 0     1.629260   -10.376400    23.715200 
291 1 0     7.946720    -8.169640    18.100600 
292 1 0     6.743390    -8.879030    18.034900 
293 3 0    66.783400    56.005300    20.294300 
294 1 0     2.469720   -12.774600    20.272600 
295 2 0     3.011790   -12.330600    19.402600 
296 2 0     2.130380   -10.949500    21.321700 
297 1 0     2.105790   -12.049500    21.371600 
298 1 0    67.857400    56.830200    19.764100 
299 3 0     6.940750    -8.617810    21.997800 
300 2 0    69.133500    56.001300    21.242600 
301 1 0    70.127200    57.206900    19.724200 
302 4 0     5.803690    -9.018600    19.154700 
303 2 0     6.106400    -8.303060    22.409600 
304 1 0     6.665520    -9.984860    21.490700 
305 1 0     5.880320   -10.986800    22.373500 
306 2 0     4.992880   -10.602100    20.290800 
307 1 0     5.987290   -10.187300    20.108300 
308 2 0     6.495660   -10.990800    19.664700 
309 2 0     7.691180   -10.393400    21.497800 
310 3 0     5.571840   -12.291400    21.778400 
311 1 0     5.041920   -13.312700    22.623900 
312 2 0     5.147350   -10.467400    23.046900 
313 1 0    69.035500    56.996200    20.791800 
314 2 0    68.211800    56.611000    18.773700 
315 2 0     6.441060   -10.963500    23.386800 
316 1 0     4.448040   -13.272400    23.889300 
317 2 0     2.127210    -8.110820    24.315100 
318 2 0     4.301650   -12.271300    24.420400 
319 2 0     2.701610   -10.236500    23.902300 
320 1 0     2.263070   -14.187600    20.358700 
321 3 0    69.507000    56.776000    24.372900 
322 1 0    70.571800    57.642800    24.750400 
323 2 0    67.730900    57.839300    19.338100 
324 2 0     7.892820    -7.545360    20.330200 
325 2 0    71.573300    57.329100    24.927700 
326 1 0     8.469210    -7.510910    19.362900 
327 2 0     7.952170   -13.959600    23.513700 
328 1 0     4.084660   -14.474800    24.490300 
329 2 0     3.742410   -14.422400    25.519800 
330 2 0     3.557510   -14.925600    18.750700 
331 1 0     5.120070   -14.560700    22.001300 
332 2 0     5.513380   -14.449700    21.072600 
333 2 0     8.791130   -12.273900    25.621400 
334 2 0     7.286290   -12.519000    24.788600 
335 2 0    70.918600    57.826100    20.149200 
336 2 0    69.695300    57.860300    18.887800 
337 1 0     7.918210   -14.935700    23.978300 
338 2 0     9.463730    -7.872120    19.601100 
339 2 0   -15.154100   -10.176200    19.998300 
340 2 0   -16.532900    -7.731510    20.721100 
341 1 0   -15.268900   -11.286900    22.802900 
342 1 0   -15.993300   -11.634200    23.928100 
343 3 0   -15.312500    -9.998560    22.222400 
344 1 0   -15.483500    -7.334010    20.602300 
345 2 0   -16.744000   -10.915100    24.362100 
346 1 0   -15.814500   -12.786400    24.643200 
347 2 0   -16.559400   -12.897600    25.521600 
348 3 0    57.796900    63.351300    17.885000 
349 2 0    -8.326530    -6.374890    24.625200 
350 1 0    57.672000    58.209700    18.970400 
351 4 0    -9.454930    -6.838300    17.567900 
352 2 0   -10.170000    -4.504160    17.819800 
353 2 0   -10.704400    -6.551700    19.995200 
354 2 0    -8.452980    -3.754110    18.037700 
355 2 0    53.956300    58.401600    22.460400 
356 2 0    52.519200    59.126300    22.101600 
357 2 0    51.592400    59.592500    18.510900 
358 1 0    52.577300    59.423800    18.069800 
359 3 0    53.142400    59.795100    24.150800 
360 1 0    53.388200    59.333900    22.754400 
361 2 0    53.082100    60.155600    18.768500 
362 2 0    55.788900    60.002100    21.592400 
363 3 0    55.060100    60.178800    21.006400 
364 1 0    54.108900    60.552900    22.101200 
365 1 0    52.911800    61.352100    21.517000 
366 2 0    54.514000    61.089200    22.987000 
367 2 0    -8.450780    -5.343430    19.632600 
368 1 0    55.207300    64.287600    19.745300 
369 1 0    53.800800    63.774300    21.747000 
370 1 0    54.727900    64.680700    21.167500 
371 1 0    -7.622450    62.348300   -41.732300 
372 2 0    -8.552700    62.833700   -42.125100 
373 2 0    -7.995130    61.320600   -41.792400 
374 1 0    53.484900    64.096300    23.125500 
375 4 0    53.272800    62.729300    20.967000 
376 2 0    55.849700    64.966300    19.212100 
377 2 0    53.971600    62.489400    20.291700 
378 2 0    52.126300    61.474900    22.297400 
379 2 0    52.334600    60.698500    20.814700 
380 1 0    54.247400    65.012800    23.817200 
381 2 0    51.953200    61.913600    17.923700 
382 2 0    51.550400    63.141100    23.209600 
383 2 0    55.828100    63.335200    19.954800 
384 1 0    52.460400    63.329300    23.873400 
385 2 0    54.376800    63.981100    19.009300 
386 1 0    55.481900    65.707500    21.762800 
387 2 0    -9.451660    61.680400   -40.316700 
388 2 0    57.689600    65.134900    20.666300 
389 1 0    55.210200    65.809000    23.133800 
390 3 0    -6.971820    -6.265680    22.775800 
391 2 0    57.690800    61.576000    20.549600 
392 2 0    54.031100    65.229400    24.885300 
393 2 0    52.931000    62.355500    24.165800 
394 1 0    52.086800    59.043200    24.755600 
395 1 0    51.917600    63.908000    25.230200 
396 2 0    51.307800    64.824800    25.166200 
397 1 0    57.828300    66.163500    20.923000 
398 3 0    57.467000    59.653700    19.235600 
399 3 0    -7.074860    62.516000   -44.299800 
400 2 0    57.628600    65.521700    24.512800 
401 1 0    56.907400    66.105500    24.980800 
402 3 0    -7.107530    62.856600   -40.455500 
403 2 0    -6.916670    -1.674340    18.802600 
404 4 0    64.354700    58.255800    23.544100 
405 2 0    60.214700    61.930300    18.299500 
406 2 0    58.305200    65.574600    18.284800 
407 2 0    58.777800    61.180800    18.038400 
408 1 0    60.790000    59.083500    17.793000 
409 1 0    -6.141150    -6.465100    23.941300 
410 2 0    -5.966990    -5.729770    24.774200 
411 1 0    -0.826930    -3.960210    17.955000 
412 1 0    -6.589340    62.508200   -42.893500 
413 2 0    -1.795890    -3.901580    18.428100 
414 2 0    -0.468010    -6.478140    21.469100 
415 2 0    60.488800    59.593200    18.700300 
416 1 0     0.213340    -6.441750    22.337900 
417 1 0     0.282860    -4.167970    18.798500 
418 2 0    59.657500    63.198500    20.021200 
419 2 0    -6.038490    63.373800   -42.600600 
420 2 0    -5.637930    60.488900   -43.246800 
421 2 0    62.842400    59.773200    21.040800 
422 1 0    -5.561780    61.392700   -42.534900 
423 3 0    60.512400    63.399900    19.530300 
424 2 0    -5.788810    60.934200   -41.547700 
425 4 0    60.960400    61.727400    22.483600 
426 2 0    61.569900    61.366700    20.445800 
427 2 0    61.173200    64.071900    21.521200 
428 2 0    63.282300    63.566000    19.384400 
429 1 0    61.488500    63.545200    20.663900 
430 1 0    62.886100    64.097800    20.276500 
431 1 0    61.708200    62.109300    21.252200 
432 2 0    62.774500    61.991200    21.464700 
433 1 0    65.137600    64.583300    21.270500 
434 3 0    63.733100    64.363800    21.438800 
435 1 0    61.741300    60.987500    23.475800 
436 1 0    62.234900    59.217300    21.795300 
437 1 0    62.496900    59.868300    23.181800 
438 2 0    61.205700    59.207000    21.460700 
439 1 0    63.469600    59.239400    24.049400 
440 3 0     0.124040    -4.328260    20.164900 
441 2 0     0.219930    -4.371250    22.799000 
442 2 0    62.648900    64.944900    19.676100 
443 1 0    61.890900    61.501100    24.760400 
444 1 0    63.409800    59.691700    25.370300 
445 2 0    65.382400    65.717700    23.104600 
446 2 0    60.124700    65.211400    20.214000 
447 2 0    65.230700    63.668400    19.370500 
448 1 0     1.015010    -5.085490    22.423700 
449 1 0    65.894900    65.231000    22.249700 
450 1 0    61.096600    62.724500    25.204400 
451 2 0    60.135300    62.727900    24.614400 
452 1 0    65.831800    64.081700    20.176700 
453 2 0    62.233200    64.075100    23.822600 
454 2 0    62.880900    64.022200    25.431600 
455 1 0    61.923100    64.063900    24.866600 
456 2 0    58.256500    66.095800    21.914500 
457 2 0    61.441900    65.014800    25.124700 
458 2 0    66.230000    59.918500    25.548700 
459 3 0    60.207700    66.185000    20.173400 
460 1 0     1.505310    -4.218090    18.034800 
461 1 0     1.324440    -4.671710    20.956300 
462 2 0     2.081330    -3.861380    21.074400 
463 2 0     4.739410    -6.628150    22.114000 
464 3 0    68.895900    58.259800    21.630800 
465 1 0    70.492300    59.166300    24.687400 
466 2 0    69.411300    59.518600    24.766900 
467 2 0     2.059040    -5.425300    20.643200 
468 3 0    71.355300    59.695400    23.547300 
469 1 0    67.277700    65.204300    22.246800 
470 2 0     2.449890    -4.467520    18.539400 
471 1 0    67.217200    64.115600    20.039100 
472 2 0    67.724200    63.674800    19.179000 
473 2 0    67.607700    59.106700    22.972000 
474 2 0    69.766700    64.554300    19.853100 
475 2 0    71.914300    63.185900    20.607600 
476 2 0    67.754600    65.743700    23.012400 
477 1 0    67.949500    64.615800    21.138500 
478 3 0     2.221590    -5.069600    23.317800 
479 2 0    72.589900    61.177500    21.736500 
480 1 0    71.180800    62.712900    21.298800 
481 1 0    71.634700    61.573900    21.943600 
482 1 0    69.885500    63.183600    21.603800 
483 1 0    70.941600    60.919600    22.996500 
484 1 0    69.736000    61.525500    23.371400 
485 1 0    69.195500    62.550300    22.665300 
486 1 0    69.462900    64.521000    20.955100 
487 2 0    69.900900    65.400000    21.435700 
488 1 0     8.738940    -5.949810    19.007800 
489 2 0     7.820980    -5.487680    18.733100 
490 2 0    68.218200    62.923300    22.976000 
491 2 0    69.048700    61.070800    24.133200 
492 2 0     9.098250    -5.395540    19.923100 
493 2 0     9.386620    -5.794080    18.157900 
494 2 0   -15.396400    -6.344380    21.184600 
495 4 0    56.419200    66.651100    21.140900 
496 2 0    56.141300    66.829900    20.161500 
497 1 0    55.952900    66.866400    23.974300 
498 2 0    54.472600    68.180400    17.986200 
499 3 0    57.002200    67.419600    18.275600 
500 2 0    56.585400    67.622000    23.361900 
501 2 0    55.295600    67.433400    24.591000 
502 2 0    59.140300    66.873000    17.857700 
503 1 0    58.259400    66.658200    18.512100 
504 2 0    58.804600    67.895200    20.065100 
505 1 0    58.833200    66.817300    19.943700 
506 2 0    -3.846450   -25.931600    20.882700 
507 2 0    -1.790330   -23.869500    22.321700 
508 2 0    -3.099130   -24.261000    18.603900 
509 2 0    -4.827650   -24.512800    21.026800 
510 4 0    -3.166780   -24.187000    19.697900 
511 1 0    -4.178750   -25.069400    20.330700 
512 2 0    -4.935840   -25.536400    19.641600 
513 1 0    -2.640210   -23.282400    22.478600 
514 2 0    -3.461560   -24.045700    22.718200 
515 1 0    -7.062510   -15.296600    18.255800 
516 2 0   -12.381900   -16.298500    24.106400 
517 2 0   -10.073700   -16.130600    24.894100 
518 2 0    51.549900    48.595500    20.232400 
519 3 0    51.719900    49.781100    18.341900 
520 2 0    53.167400    47.491000    18.740600 
521 1 0    52.203700    49.049200    19.475500 
522 2 0    54.143000    48.839000    18.766800 
523 1 0    53.518800    48.249100    19.396600 
524 3 0    54.046300    47.889600    20.734400 
525 1 0    54.977900    48.792000    21.308500 
526 1 0    55.798000    48.425900    22.388200 
527 2 0    55.681500    47.390400    22.860300 
528 1 0    56.804100    49.191600    22.975900 
529 2 0    57.471000    48.822200    23.753500 
530 2 0   -14.814000   -15.889500    24.470200 
531 1 0   -12.150600   -15.683700    24.986900 
532 1 0   -10.840500   -15.503800    25.407700 
533 2 0    -7.082490   -18.096100    21.181800 
534 2 0    -2.529880   -22.690200    23.437400 
535 2 0    -6.704870   -15.885700    19.099100 
536 2 0    -2.284780   -17.502000    17.696600 
537 1 0    -0.965340   -15.127500    17.520900 
538 2 0    -3.701670   -15.183700    20.391100 
539 1 0    -3.594630   -15.313500    21.499300 
540 1 0    -3.541260   -15.821700    24.179600 
541 2 0    -3.463530   -15.941100    25.268600 
542 3 0     0.095530   -23.004300    23.837000 
543 2 0    -5.533890   -22.234600    17.972000 
544 1 0    -3.341240   -22.315400    17.582900 
545 1 0    -4.273900   -16.429600    21.998400 
546 2 0    -0.716340   -16.601000    24.301400 
547 2 0    -5.081920   -19.376400    19.853600 
548 3 0    -5.792790   -20.633100    21.394900 
549 1 0    -5.597940   -19.520700    20.848500 
550 1 0    -4.229600   -16.709000    23.379600 
551 1 0    -3.060230   -22.792600    20.048600 
552 1 0    -2.991090   -21.820000    18.991500 
553 1 0    -6.012560   -18.186500    21.484600 
554 3 0    -4.979930   -17.179200    21.031900 
555 2 0    -4.683750   -17.640700    23.787100 
556 2 0    -6.189910   -18.371400    22.581800 
557 1 0    -2.051770   -20.137700    20.547800 
558 1 0    -2.110060   -21.050800    21.612300 
559 1 0    -2.791190   -22.258400    21.299100 
560 2 0    -3.637570   -20.078300    23.479000 
561 2 0    -2.456360   -18.819600    23.222500 
562 4 0    -1.725700   -20.779700    23.026800 
563 1 0    -2.621280   -19.722700    23.660000 
564 1 0    -0.233220   -20.575000    23.178300 
565 2 0    -1.037940   -18.612800    21.729500 
566 1 0    -2.491540   -20.514000    19.207300 
567 2 0    -1.807880   -17.928800    20.307800 
568 2 0    -2.434420   -19.769700    18.461300 
569 2 0     0.116950   -19.776200    22.562300 
570 1 0    -1.299900   -18.818300    20.684300 
571 2 0    -0.043490   -20.186400    24.221400 
572 2 0    -2.308700   -21.662400    25.044100 
573 1 0     0.086990   -16.704400    24.986700 
574 1 0     0.603690   -21.888400    23.031300 
575 2 0     0.627280   -22.257300    21.994100 
576 1 0     0.047850   -18.979100    19.864500 
577 2 0     0.259780   -22.568200    24.727600 
578 2 0     0.632160   -19.898800    20.178300 
579 2 0    -0.081050   -18.985100    18.753500 
580 2 0     0.798980   -18.216900    19.945400 
581 1 0    -2.440610   -19.432400    25.213700 
582 2 0    -1.477880   -18.950100    25.378000 
583 1 0     1.381280   -15.152900    18.123100 
584 1 0     2.531070   -15.088900    19.145200 
585 1 0     1.306190   -16.834600    24.390800 
586 2 0     1.440380   -16.865900    23.278900 
587 2 0     1.297540   -15.784700    21.424800 
588 1 0     2.025460   -21.442700    23.420600 
589 2 0     8.029170   -15.863900    22.042700 
590 1 0     4.198450   -15.683200    23.802600 
591 1 0     4.636250   -15.734500    22.459300 
592 2 0     2.553830   -16.104900    19.554300 
593 2 0     3.616300   -18.560000    20.809800 
594 2 0     4.743560   -16.720100    21.941000 
595 3 0     2.540360   -20.520800    22.332600 
596 2 0     5.893120   -17.814700    20.790100 
597 1 0     4.259750   -19.015700    21.554800 
598 2 0     3.860250   -17.708600    23.805000 
599 1 0     5.570130   -18.601300    21.546000 
600 1 0     3.822140   -19.957700    22.503300 
601 2 0     8.296600   -18.102000    21.619100 
602 1 0     6.531720   -18.988200    22.540600 
603 1 0     8.012310   -16.014300    23.124300 
604 1 0     4.772650   -20.391700    23.449800 
605 1 0     3.890870   -16.931600    24.560100 
606 1 0     7.931990   -18.490600    22.623600 
607 1 0     6.072840   -19.958700    23.457000 
608 1 0     8.013450   -17.332300    23.631100 
609 2 0     8.646400   -19.301000    22.839700 
610 1 0     2.503220   -16.886500    25.174300 
611 2 0     4.745950   -17.133800    25.248700 
612 2 0     2.023630   -21.148500    24.464300 
613 2 0     2.558420   -22.393900    23.579300 
614 2 0     4.437450   -21.062100    24.241700 
615 2 0     6.688700   -20.384700    24.249000 
616 1 0     8.015970   -17.550300    25.038600 
617 1 0     7.865830   -15.162700    25.364600 
618 2 0     8.101650   -18.576500    25.477100 
619 1 0   -12.748100   -14.092400    26.726200 
620 2 0   -13.506000   -13.494200    27.239700 
621 2 0    53.375100    56.492500   -38.880000 
622 1 0    54.087500    55.714100   -38.897700 