#DETDA molecule
936 atoms
4 atom types

-1.5000000000000000e+01 5.0000000000000000e+01 xlo xhi
-1.5000000000000000e+01 5.0000000000000000e+01 ylo yhi
-1.5000000000000000e+01 5.0000000000000000e+01 zlo zhi

Masses

1 12
2 1.008
3 15.999
4 14

Atoms

1 2 0    55.561100    54.040200    10.129600 
2 2 0    55.752700    53.160700    11.593800 
3 2 0    54.690400    55.241700    12.664100 
4 4 0    -9.923950    -7.223810    15.709600 
5 2 0    55.528200    57.387600    10.792800 
6 2 0    54.443500    56.326600    10.130300 
7 1 0    54.728400    56.672900    11.105000 
8 1 0    -7.928720    -7.161790    14.243200 
9 1 0    -7.559030    -8.624260    14.502700 
10 1 0    55.341600    55.494500    11.858400 
11 3 0   -10.750100   -11.025200    16.424900 
12 2 0    -9.993730    -8.294530    15.665500 
13 3 0    56.738200    55.186900    11.715400 
14 2 0    -8.475920    -9.235580    14.461500 
15 3 0    53.551600    57.205400    11.861700 
16 1 0    55.921600    54.160100    11.139600 
17 1 0   -11.739100   -11.433100    15.391300 
18 2 0   -12.804900   -10.781900    17.219200 
19 2 0    51.647600    56.461800    16.633300 
20 1 0   -11.998100   -11.469500    16.941700 
21 2 0    -6.968050    -8.953160    13.633600 
22 2 0   -11.534500   -13.542000    17.183000 
23 2 0   -12.478800   -10.777100    14.835100 
24 2 0   -11.700000   -12.362500    14.852000 
25 2 0    -7.270770    -8.206460    16.624600 
26 2 0   -13.135600   -13.275200    17.221100 
27 2 0    53.664100    57.911500    17.400700 
28 1 0    -6.708890    -8.701510    15.818200 
29 2 0    -5.711890    -8.232570    15.758900 
30 2 0    -6.520920    -9.740310    16.194700 
31 2 0    -1.386020   -13.453200    16.019200 
32 2 0    -1.904990   -10.819900    13.526100 
33 3 0    -2.424630   -11.433400    16.160700 
34 1 0    -1.183090   -11.286500    15.474000 
35 2 0    -0.255670   -11.372700    13.532600 
36 2 0    -0.142360   -11.282800    15.927600 
37 1 0    -0.982520   -10.667500    14.098000 
38 1 0    -1.969780   -12.667100    15.576900 
39 2 0    -2.245620   -12.989000    14.604200 
40 1 0     0.727020    -8.893770    14.634400 
41 3 0    -0.610510    -9.242750    14.353300 
42 2 0    63.147300    55.659100    16.370300 
43 2 0    65.528100    56.683600    17.099700 
44 1 0     1.128670    -7.569940    14.540100 
45 2 0    62.547000    57.237800    14.838300 
46 1 0    61.779000    57.246000    16.832700 
47 1 0    62.630600    56.048000    17.252700 
48 2 0    -6.139660    -6.978750    12.991500 
49 1 0    61.911400    57.768400    15.530100 
50 2 0     1.617490   -10.892600    15.005100 
51 1 0     1.717230    -9.809510    15.044100 
52 1 0     3.002200    -9.457540    15.403400 
53 2 0     3.769380   -10.150200    15.780200 
54 1 0     3.370000    -8.090380    15.391700 
55 1 0     4.767390    -7.648940    15.718300 
56 2 0     5.385140    -7.393900    14.835300 
57 1 0     2.451980    -7.186820    14.740800 
58 3 0     3.597060   -14.218800    17.405200 
59 2 0     5.330710    -8.459960    16.122900 
60 1 0    53.274300    58.545000    11.611100 
61 2 0    51.471400    58.376600    12.659800 
62 2 0    50.793300    60.742600    12.540500 
63 2 0    54.788300    59.112000    10.161000 
64 1 0    52.068000    59.085100    12.122200 
65 1 0    51.714000    60.406000    12.060800 
66 1 0    -9.028330    -6.491020    14.856800 
67 1 0    53.986600    59.453400    10.784800 
68 1 0    53.708600    60.802100    10.728300 
69 2 0    54.378300    61.494500    10.190400 
70 1 0    52.591000    61.292100    11.378100 
71 2 0   -10.275300    -3.680810    15.716500 
72 1 0    -9.193040    -5.138760    14.464300 
73 1 0    51.176700    63.906300    13.419400 
74 1 0    52.337700    63.536800    12.663400 
75 1 0    51.413700    64.563100    14.568600 
76 1 0    53.634300    63.929300    13.134900 
77 1 0    53.772400    64.577900    14.347700 
78 1 0    52.626900    64.908400    15.154400 
79 2 0    -8.966740    -2.718460    14.411300 
80 1 0   -10.510100    -4.425540    14.926800 
81 2 0   -10.971900    -3.793640    14.158900 
82 4 0    -8.187900    -2.912210    13.717700 
83 2 0    54.454700    63.691800    12.499200 
84 1 0    52.241100    62.817900    11.354300 
85 1 0    -8.258880    -4.375080    13.765000 
86 2 0    51.255000    62.921300    10.874000 
87 2 0    52.863400    63.349200    10.646800 
88 2 0    54.739100    65.007500    14.642200 
89 3 0    52.544200    65.361500    16.490500 
90 2 0   -11.275000    -5.142350    15.268600 
91 2 0    54.716600    64.938600    16.695400 
92 3 0    56.787600    62.747200    16.725600 
93 1 0    -7.206880    -5.119460    13.160400 
94 2 0    -7.318970    -5.223270    10.418900 
95 2 0    50.538600    64.814500    15.192200 
96 2 0    57.600400    60.452000    16.396500 
97 2 0    51.039300    62.367700    15.798600 
98 1 0    58.089400    62.472700    16.025500 
99 1 0    53.834100    65.381100    17.166900 
100 2 0    58.072400    63.712100    14.202400 
101 1 0    57.998300    62.658600    14.478700 
102 1 0    54.731600    58.216600    17.165100 
103 2 0    54.626400    59.292200    17.231600 
104 1 0    -7.039400    -6.491180    13.397300 
105 1 0    50.250400    61.681300    16.289700 
106 2 0    50.200000    63.667600    13.161900 
107 2 0    53.859100    63.032500    17.314700 
108 1 0    50.904800    60.877200    17.409500 
109 1 0    50.640000    59.479400    17.373500 
110 2 0    -5.989050    -6.267340    11.064100 
111 1 0    -6.315660    -5.251430    10.849000 
112 2 0    -6.627980    -3.460060    11.917000 
113 1 0    -6.261560    -4.449830    12.156900 
114 2 0    58.949100    62.335500    13.984900 
115 2 0    -5.579180    -4.817850    10.188300 
116 2 0    -5.202890    -4.299410    12.482400 
117 1 0    58.531600    61.082000    16.378400 
118 2 0    58.890000    63.086000    16.381800 
119 2 0     0.418450    -6.791000    14.149000 
120 1 0    -3.678640     0.146830    13.871100 
121 1 0    -1.003100    -0.973770    15.174700 
122 1 0    -1.928030    -1.999260    15.451200 
123 1 0    -0.223470    -3.456560    16.275300 
124 2 0    -2.979880    -1.877070    15.265300 
125 1 0     0.355420    -1.286330    15.438300 
126 1 0     0.737060    -2.472780    16.026000 
127 2 0     1.068700    -0.527550    15.265200 
128 3 0    -1.336640     0.277820    14.645600 
129 2 0    -3.397470     0.605410    15.799700 
130 1 0    -2.777930     0.740120    14.842300 
131 2 0    61.311100    59.417300    14.266500 
132 1 0    -1.584990    -3.221600    15.959900 
133 3 0    59.644400    60.634100    15.521900 
134 1 0    61.201700    58.880100    15.214000 
135 1 0    60.275200    59.493700    16.069300 
136 2 0    -3.116010    -0.673150    13.356200 
137 3 0    -5.099390     0.392340    14.146500 
138 1 0    -4.748310     1.035050    12.959500 
139 2 0    -0.334350    -5.614860    16.651900 
140 1 0     0.174140    -4.728220    17.037800 
141 2 0    -2.358920    -4.023540    15.959000 
142 1 0    60.110400    58.951800    17.355800 
143 2 0     1.212660    -5.051990    16.802000 
144 2 0    -4.927180     0.600030    11.977400 
145 2 0     1.810400    -2.569610    16.192700 
146 2 0     2.720090    -6.127180    14.507400 
147 1 0     5.133910    -5.156710    16.403400 
148 2 0     5.591030    -4.863250    15.412700 
149 2 0     5.255070    -3.127170    17.130800 
150 1 0     4.999090    -4.186330    17.378700 
151 1 0     4.718140    -6.439950    16.710500 
152 2 0    49.887600    59.186600    16.596600 
153 2 0    49.989000    60.999000    15.472900 
154 2 0    48.214200    61.891500    17.324800 
155 1 0    48.977500    62.539900    16.810100 
156 2 0    48.394200    62.948000    15.940500 
157 2 0    54.203700    66.418000    17.235300 
158 2 0    -2.907340     1.828170    14.865200 
159 2 0    -4.444470     2.082220    12.914000 
160 2 0     2.771020   -15.981700    16.161200 
161 1 0     3.484600   -15.637000    16.926400 
162 2 0     5.617990   -15.670800    17.118400 
163 2 0     4.594030   -16.149300    14.232800 
164 2 0     6.288640   -16.329100    14.815000 
165 1 0     4.831070   -16.207100    16.589500 
166 1 0     5.265960   -16.576700    15.077500 
167 3 0     4.864620   -17.524800    16.056900 
168 2 0    50.814900    55.228100    17.694800 
169 1 0    51.410200    56.138700    17.655300 
170 2 0    52.322800    56.056500    18.269500 
171 1 0   -12.219300   -12.807800    17.649200 
172 2 0    54.932900    56.011000    17.670200 
173 2 0    -9.206390   -10.528100    22.506800 
174 1 0    -9.092740   -12.248600    23.711300 
175 1 0    -8.528630   -11.211400    22.995400 
176 2 0   -10.217600   -12.363900    23.738400 
177 1 0    55.524400    56.413500    18.549400 
178 2 0    52.057600    56.233700    20.564700 
179 2 0    51.864100    55.466300    22.873700 
180 2 0    55.079300    53.724000    18.486200 
181 2 0    55.487400    51.415900    19.130100 
182 1 0    52.229100    57.212700    21.030400 
183 1 0    52.267300    56.337300    23.396800 
184 3 0    54.395300    56.205000    22.012400 
185 1 0    50.429000    57.173000    18.265500 
186 1 0    -8.361680   -13.139500    24.515600 
187 3 0   -12.136900   -12.360700    19.092200 
188 1 0   -12.308600   -13.316600    20.119800 
189 2 0   -11.607100   -11.901800    21.592500 
190 2 0   -13.086700   -14.977000    19.030900 
191 1 0   -12.025100   -12.937000    21.420200 
192 1 0   -12.810500   -14.645600    20.035900 
193 1 0   -12.300400   -13.645000    22.537400 
194 1 0    53.138100    56.968100    22.280300 
195 3 0    51.324100    57.321200    23.891300 
196 2 0    52.949600    55.906400    24.117600 
197 2 0    54.731900    56.784800    21.287400 
198 1 0    51.614500    57.960800    25.129700 
199 1 0    56.014800    53.512300    18.867800 
200 2 0    50.136900    56.790300    19.241200 
201 2 0    54.739600    56.285100    19.337400 
202 2 0    -8.036780    -8.184590    22.745400 
203 1 0    56.254200    52.166800    19.229400 
204 2 0    -8.364480    -9.059020    21.419800 
205 1 0    57.009100    54.474800    18.966200 
206 1 0    57.586400    51.817700    19.606400 
207 3 0    56.870000    55.882800    18.794500 
208 2 0    55.757300    56.199600   -39.574900 
209 2 0    52.291300    53.677800   -40.000500 
210 1 0    57.835800    50.366400    20.048000 
211 1 0    -6.993850   -12.944600    24.442600 
212 1 0    -7.137080   -10.927700    23.006800 
213 1 0    -7.449470    -8.748620    21.969700 
214 2 0   -12.156000   -13.265900    23.511000 
215 2 0    57.198500    50.238700    20.923500 
216 2 0    51.159800    57.481500    21.339100 
217 1 0    -8.873610   -14.313200    25.387900 
218 2 0    -9.959590   -14.382000    25.383200 
219 1 0   -12.998900   -14.908500    22.383800 
220 2 0    58.121700    56.809800   -39.968000 
221 2 0    53.250800    58.025600    22.516100 
222 1 0    55.681000    57.876900    18.295800 
223 2 0    56.706700    57.959000    17.922500 
224 2 0   -13.685000   -14.843400    24.400600 
225 2 0    -6.252350   -13.616500    24.919400 
226 2 0     0.783250   -10.680500    18.213600 
227 1 0     0.880390   -11.779400    18.272800 
228 2 0    59.156900    54.796400    19.359600 
229 1 0    58.340800    54.090100    19.264800 
230 1 0    58.637100    52.794300    19.591600 
231 1 0    -6.433780   -11.865300    23.768600 
232 2 0    59.673000    52.548500    19.780600 
233 2 0    -1.663850   -11.034200    18.582100 
234 1 0    -0.180130   -12.639700    18.608100 
235 2 0    -2.360450   -12.692400    18.568200 
236 2 0    61.882700    55.154700    17.623900 
237 1 0    65.067200    56.731500    18.107800 
238 1 0    -1.550740   -12.014200    18.986600 
239 3 0    -6.531370    -9.861040    22.317200 
240 1 0    63.683300    56.415400    18.286700 
241 1 0    -2.854130   -12.599200    21.050400 
242 2 0    -3.573770   -13.434300    22.906800 
243 1 0    -2.789360   -12.844900    22.404700 
244 1 0    -1.780690   -12.392300    23.243800 
245 1 0    -0.633260   -11.558800    21.300800 
246 1 0    -0.663430   -11.763500    22.661900 
247 1 0    -1.652680   -12.071000    20.471600 
248 2 0    -3.678970   -12.950200    20.443900 
249 1 0    -6.781610    -7.688550    21.071300 
250 2 0    -6.531780    -8.071630    20.040600 
251 1 0     0.046190   -14.010900    18.597700 
252 2 0    -5.341720   -11.744200    23.799500 
253 2 0     0.228630   -11.075600    20.880800 
254 2 0    62.155600    56.735100   -40.728500 
255 2 0     0.102130   -11.330900    23.351600 
256 1 0    65.385700    56.986100    20.563300 
257 1 0    65.811700    56.919200    19.230300 
258 1 0    63.145500    56.418800    19.613700 
259 1 0    64.026500    56.663900    20.671500 
260 2 0    62.133800    56.095100    19.772900 
261 2 0    65.267000    56.003900    23.262600 
262 2 0    63.510100    56.767800    21.703300 
263 3 0    -1.832020   -12.765700    24.594400 
264 2 0    -1.150010   -10.370200    24.994300 
265 2 0    60.715300    54.914500   -39.726800 
266 2 0     0.306540   -12.959900    25.292200 
267 1 0    61.526700    57.461500   -40.212600 
268 1 0    65.609100    57.037400    23.028100 
269 2 0    60.902300    57.445500    18.759700 
270 2 0    -5.396050    -7.632520    22.811600 
271 1 0    -5.517660    -7.155050    21.816400 
272 2 0    -4.576210    -7.213790    21.210500 
273 1 0     0.412840   -14.800300    22.096400 
274 3 0    66.232400    57.270900    21.661100 
275 3 0     1.077170   -10.563100    25.147900 
276 1 0    60.850200    57.831600    17.719300 
277 2 0    64.729700    57.629200    23.391600 
278 2 0    -0.797820   -14.674300    18.750300 
279 2 0    -0.510390   -14.961300    21.461600 
280 1 0    -0.656620   -12.439000    25.461500 
281 1 0    -0.373530   -10.910700    25.537000 
282 2 0     1.079820    -9.597820    25.142500 
283 2 0     2.963140   -11.647400    17.730300 
284 1 0     2.089490   -12.320900    17.934500 
285 1 0     2.321990   -13.697600    17.773400 
286 1 0     1.277530   -14.513500    18.152300 
287 3 0     3.491610    -9.920150    19.671400 
288 2 0     3.777470    -7.652640    18.223900 
289 2 0    66.926500    57.068200    19.078700 
290 2 0     2.442930   -10.421800    21.597000 
291 2 0     2.932750   -12.605600    20.218500 
292 2 0     3.486800   -14.216400    24.480600 
293 1 0     2.614870   -14.424400    23.796200 
294 1 0     4.476150    -9.679000    20.672700 
295 2 0     5.510360   -10.135900    20.807600 
296 2 0     4.528380    -8.826850    21.403100 
297 2 0     4.477220   -12.268200    20.356400 
298 1 0     3.267680   -10.658300    20.898800 
299 1 0     1.414390   -13.896500    21.813300 
300 1 0     3.593100   -12.142500    20.931600 
301 3 0     3.602110   -12.765400    22.281300 
302 1 0     2.506010   -13.639700    22.660700 
303 1 0     7.095040   -10.750700    24.277700 
304 1 0     5.706790   -10.704100    23.987200 
305 2 0     5.313190   -11.218600    23.122200 
306 1 0     4.917440    -9.831750    24.710000 
307 2 0     3.861870    -9.800190    24.396500 
308 1 0     7.400660   -13.137700    23.487500 
309 2 0     6.486440   -13.234300    21.445000 
310 2 0     1.426170   -13.334600    20.813600 
311 2 0    67.588300    56.585900    23.784100 
312 1 0     6.666650   -13.728500    22.410700 
313 1 0     7.624240    -9.862190    25.248400 
314 1 0     7.940440   -11.715000    23.438800 
315 2 0     7.945740   -11.355800    22.397900 
316 2 0     7.365000    -8.119450    22.641200 
317 2 0     7.707920    -6.984150    23.968300 
318 1 0    66.776200    57.317800    24.004300 
319 2 0     5.011360    -7.255360    23.193500 
320 3 0    66.359400    57.466100    25.408500 
321 1 0     7.642320   -14.007800    24.562700 
322 2 0     8.962470   -11.765700    23.831500 
323 2 0     8.721680    -9.955710    25.431900 
324 1 0     5.984000   -14.953800    22.527500 
325 1 0     7.197320    -7.069590    23.005700 
326 2 0     8.247470   -13.767800    25.433800 
327 2 0    49.512000    57.206500    17.654600 
328 2 0    -8.127940    -2.533830    17.652900 
329 1 0    51.050100    58.580700    18.339700 
330 4 0    52.863700    58.230000    20.083000 
331 2 0    53.927000    58.665600    20.186200 
332 1 0    52.025300    59.078300    19.287800 
333 3 0    55.478800    58.705200    19.558800 
334 2 0    56.177100    59.457700    22.573400 
335 3 0    -9.553530    59.938300   -41.986800 
336 1 0    53.821800    64.762100    18.612200 
337 2 0    53.984700    62.587700    19.004500 
338 2 0    51.556300    63.418800    17.712200 
339 4 0    52.065900    62.875600    18.523800 
340 2 0    52.994400    65.200100    19.131200 
341 1 0    53.522000    63.287700    18.320700 
342 1 0    51.734500    61.473100    18.385400 
343 3 0    55.191200    64.879000    19.295300 
344 2 0    55.520800    64.007600    19.083000 
345 1 0    52.285000    60.477700    19.281200 
346 1 0    52.878200    61.085100    20.578500 
347 3 0    56.162200    61.751900    19.366000 
348 2 0    56.391600    63.015400    21.188200 
349 2 0    53.982800    61.181900    20.495100 
350 2 0    52.624700    60.404300    21.449700 
351 2 0    52.545800    62.098700    20.759900 
352 2 0    55.890800    60.863500    19.631800 
353 1 0    -8.765200    60.618100   -40.936300 
354 1 0    56.974400    62.463100    20.415400 
355 2 0    57.435700    64.130900    19.226500 
356 2 0    56.286700    63.938300    23.475200 
357 2 0    -9.163230    61.563500   -40.508300 
358 1 0    -7.224910    60.838500   -41.206500 
359 1 0    57.031900    64.524200    23.997800 
360 2 0    57.136100    60.505700    21.283000 
361 1 0    57.771600    61.414800    21.287000 
362 2 0    -8.503100    58.767100   -39.859900 
363 1 0    -8.796020    59.802500   -39.613500 
364 2 0    56.776800    65.531200    23.700000 
365 2 0    -8.832060    -6.715430    20.225400 
366 1 0    56.945100    64.349000    25.550100 
367 4 0    58.060500    61.838900    22.695900 
368 1 0    50.947000    59.182100    25.347000 
369 2 0    -9.890400    59.534600   -39.422800 
370 1 0    58.001300    63.489700    19.862600 
371 2 0    50.269800    59.489800    24.562500 
372 2 0    -6.701730    61.155100   -40.340400 
373 2 0    -6.730050    59.905200   -41.454500 
374 2 0    58.608900    60.995500    17.509600 
375 1 0    58.453400    64.234600    23.460100 
376 3 0    -6.641830    -6.336040    21.430700 
377 2 0    58.203400    64.250100    20.594400 
378 2 0    62.613600    59.059800   -40.988700 
379 2 0    58.700300    61.097000    20.709600 
380 2 0    -1.710000    -6.150090    18.687200 
381 1 0    -0.078010    -4.695030    18.527700 
382 2 0    59.353300    59.324900    18.028300 
383 1 0    58.943300    62.986700    22.921000 
384 3 0    59.165500    62.910100    19.190000 
385 1 0    -1.060010    -5.429290    19.237400 
386 1 0    60.320100    63.717300    18.960200 
387 1 0    61.499200    63.036300    18.575700 
388 1 0    62.608200    63.789000    18.375000 
389 2 0    63.550200    63.308800    17.988400 
390 2 0    61.506700    62.017300    18.321900 
391 1 0    -1.209710    -5.194580    20.597100 
392 2 0    -1.901480    -5.799580    21.120800 
393 1 0    60.255500    62.919300    22.463400 
394 2 0    60.845300    61.290000    20.934800 
395 1 0    60.814500    61.546000    22.036700 
396 2 0    62.494100    62.989000    21.331400 
397 1 0    61.162800    64.031900    22.418800 
398 4 0    62.406400    63.929800    21.756100 
399 2 0    61.797400    61.317700    22.449500 
400 2 0    60.179200    60.712800    22.458300 
401 2 0    62.898400    64.869100    21.822300 
402 1 0    -0.428270    -4.305250    21.344300 
403 3 0    -0.662000    -4.268740    22.731500 
404 1 0     0.120270    -3.277870    23.487400 
405 1 0     0.456560    -3.554240    20.632400 
406 2 0     0.324600    -2.308780    22.916900 
407 1 0     0.650210    -3.730590    19.231700 
408 1 0    60.695000    65.155400    23.129700 
409 1 0    59.407700    65.248000    23.722800 
410 1 0    60.356600    65.082500    19.283400 
411 1 0    62.654000    65.158500    18.623100 
412 1 0    -0.533340    -3.060610    24.845300 
413 2 0    65.743500    64.292400    19.861400 
414 2 0    59.455000    65.556100    19.730200 
415 2 0     1.222020    -3.486370    23.654700 
416 1 0    65.357700    65.162100    20.376000 
417 2 0    -1.642420    -2.819490    24.776200 
418 1 0    65.790400    65.396100    21.647700 
419 1 0    61.765400    58.833900   -40.319500 
420 2 0    64.663000    65.370500    17.763600 
421 1 0    61.526100    65.821500    19.158200 
422 2 0    63.132100    65.731200    24.525600 
423 2 0    59.098500    66.220100    24.118200 
424 1 0    63.969100    65.941300    18.395100 
425 2 0    61.956700    63.664600   -39.848700 
426 2 0     1.060980    -2.800320    21.105200 
427 1 0    64.504200    66.152300    19.792200 
428 2 0     0.179090    -5.092670    25.323500 
429 3 0    61.602400    61.150600   -39.615900 
430 1 0    61.133200    59.833200   -39.570700 
431 2 0    59.786200    62.319300   -39.815200 
432 2 0    66.519800    64.731000    21.998600 
433 2 0     1.388500    -3.140710    18.686800 
434 1 0     4.199750    -6.672380    18.000900 
435 2 0     7.900800    -6.557070    22.303300 
436 2 0     3.894540    -6.787290    25.011800 
437 2 0     5.393940    -6.448200    21.769300 
438 1 0     5.760610    -6.510080    22.855400 
439 1 0     4.482030    -4.321500    18.656500 
440 1 0     4.072910    -5.642340    18.940900 
441 3 0     4.338900    -3.171250    19.497800 
442 2 0    68.269000    58.244600    22.612800 
443 4 0     3.366270    -5.921940    24.726700 
444 1 0     5.484090    -5.244040    23.663700 
445 1 0    67.627800    58.530300    23.500400 
446 1 0     4.428000    -4.939200    24.519900 
447 1 0     6.520270    -4.282620    23.473200 
448 2 0     3.659880    -5.931850    19.957000 
449 2 0     4.795450    -4.078450    21.442400 
450 2 0     3.242130    -4.272360    20.985300 
451 1 0     4.019010    -3.494330    20.876800 
452 3 0     2.584200    -2.375610    22.332400 
453 2 0    66.883800    59.277300    23.166300 
454 1 0     4.484590    -3.673570    25.130900 
455 1 0     3.595760    -2.232480    21.615400 
456 2 0     4.155500    -1.266760    21.373600 
457 1 0     5.398230    -2.618540    24.930000 
458 1 0     6.448180    -2.986930    24.012700 
459 4 0     5.350780    -1.322210    25.561300 
460 2 0     7.326610    -4.533280    22.830100 
461 2 0    66.864500    64.699800    24.083100 
462 2 0     6.168330    -0.466900    22.758400 
463 1 0     7.453510    -1.936340    23.532300 
464 1 0     6.978720    -1.011780    22.370000 
465 2 0     6.554160    -1.541380    21.507500 
466 2 0     7.752450    -0.298650    22.159500 
467 2 0     7.734060    -1.316090    24.410300 
468 2 0     8.373510    -2.479760    23.262700 
469 2 0    68.008100    65.379200    23.282800 
470 1 0    67.251700    65.725900    23.971200 
471 1 0    67.882500    66.122800    25.286300 
472 2 0    49.228500    63.331300    17.541200 
473 1 0    61.486700    66.488300    23.107800 
474 2 0    62.061600    66.584200    22.135100 
475 1 0    64.756600    67.552500    21.718200 
476 1 0    64.226200    67.365200    20.460900 
477 2 0    63.695000    68.264100    20.036100 
478 2 0    63.904800    66.907500    17.776300 
479 2 0    61.504700    66.925300    19.398400 
480 2 0    64.552900    68.523000    22.148300 
481 2 0    60.792600    67.357300    23.031400 
482 1 0    62.462400    66.618600    24.361000 
483 1 0    65.606100    66.615400    22.344100 
484 2 0    62.959200    67.586700    24.463400 
485 2 0    61.854300    66.712400    25.262700 
486 3 0    66.373500    66.848300    23.492800 
487 2 0    68.374400    67.132500    25.234800 
488 2 0    -4.829600   -25.001200    23.208600 
489 4 0    -4.880160   -24.434800    24.111500 
490 1 0    -2.820040   -24.183800    21.920900 
491 2 0    -2.916040   -25.256300    22.181400 
492 2 0    -4.045800   -24.792100    20.059000 
493 1 0    -3.998370   -23.973300    20.826400 
494 2 0    -4.955600   -23.997100    21.313800 
495 1 0    -3.790850   -23.548100    24.268400 
496 2 0    -1.792760   -24.143800    21.474200 
497 1 0    -2.935010   -23.228300    23.131200 
498 2 0    -5.296670   -24.695300    24.999900 
499 1 0   -13.172800   -15.461400    21.084700 
500 2 0   -13.833100   -16.287900    20.851400 
501 1 0    -8.353250   -15.638200    24.784300 
502 2 0   -11.573400   -17.275700    22.205100 
503 1 0   -13.650800   -15.594900    23.607000 
504 1 0   -12.797000   -16.887100    23.973700 
505 1 0   -11.842900   -17.600500    23.228100 
506 1 0    -8.739780   -16.015200    23.497900 
507 2 0    -9.413990   -15.388500    22.916300 
508 1 0   -11.117800   -18.620100    23.897800 
509 2 0   -10.424800   -19.274700    23.303200 
510 1 0   -11.260500   -18.956800    25.264400 
511 2 0    -9.504880   -20.914900    24.754300 
512 2 0    -8.640330   -19.481400    24.775400 
513 1 0    -9.169380   -20.086000    25.454800 
514 2 0    -7.313110   -22.440300    23.430300 
515 1 0    -8.215240   -17.163300    22.941300 
516 2 0    -8.523450   -17.499000    21.933100 
517 2 0   -14.663700   -15.919500    23.405900 
518 2 0    57.301300    49.666400    19.378600 
519 1 0   -13.158000   -17.460900    25.232900 
520 1 0    -7.483450   -16.423300    25.582900 
521 2 0    -8.097320   -20.154500    21.766600 
522 1 0    -7.250740   -17.920000    23.597000 
523 1 0    -6.958830   -17.490800    24.945600 
524 2 0    -7.008900   -19.337700    20.944300 
525 1 0    -7.042700   -19.872700    21.931300 
526 2 0    -3.313140   -15.480000    24.604800 
527 1 0     0.463020   -15.487500    23.340600 
528 2 0    58.701300    49.656800    22.505800 
529 2 0    -3.974190   -23.035100    20.169400 
530 2 0    -5.604200   -22.507300    23.577900 
531 1 0    -6.399250   -22.394800    22.866500 
532 1 0    -2.618460   -15.853600    25.331600 
533 3 0    -6.345600   -22.355700    21.406600 
534 2 0    -6.555860   -20.936000    25.094300 
535 1 0    59.460100    49.473700    21.707100 
536 2 0    60.652900    48.352700    23.034800 
537 1 0    60.603800    48.724200    21.978600 
538 1 0    59.232500    49.901600    20.374700 
539 3 0    -6.690840   -19.130300    23.171400 
540 2 0    63.175200    47.226500    19.253100 
541 3 0    65.638500    47.886300    20.024100 
542 2 0    62.204600    48.827000    19.088000 
543 2 0    60.205000    49.987500    18.396600 
544 2 0    63.045400    45.819400    20.044300 
545 1 0    64.836600    46.865300    20.607600 
546 2 0    -5.119670   -20.706800    22.193400 
547 1 0    60.278300    49.639200    19.429600 
548 1 0    -6.123070   -21.104800    22.032900 
549 1 0    61.594200    48.387500    21.068400 
550 3 0    62.713100    47.580200    21.361800 
551 1 0    61.362800    48.951100    19.781600 
552 1 0    63.375900    46.842500    20.263200 
553 1 0    65.972000    46.588800    19.499600 
554 2 0    65.678100    46.181100    18.541000 
555 2 0    -1.760960   -21.651200    22.126600 
556 1 0    -2.281250   -22.006300    23.069200 
557 2 0    -2.101440   -19.365000    22.952100 
558 1 0    -2.363950   -21.108300    24.160500 
559 1 0    -3.628970   -22.746700    25.390000 
560 1 0    -1.699040   -19.804300    23.929900 
561 2 0     0.130190   -20.738200    23.160300 
562 1 0    -0.113280   -20.039000    23.922700 
563 2 0     0.521150   -19.150400    23.851800 
564 1 0    -2.933800   -21.517700    25.374400 
565 2 0    -1.978690   -19.041000    24.688200 
566 2 0     0.173660   -20.538200    24.863100 
567 2 0    -6.173980   -18.074200    25.452900 
568 1 0    -1.272450   -16.280800    25.071500 
569 2 0    65.126200    46.589300    21.642200 
570 2 0    -1.575170   -15.812000    22.950900 
571 1 0    -0.790800   -16.310800    23.636000 
572 2 0    -0.691940   -17.380500    23.211500 
573 2 0     1.674800   -15.815700    25.076100 
574 1 0     1.617170   -15.307700    24.128900 
575 2 0    66.732700    45.928000    19.912300 
576 2 0     1.286860   -15.570600    18.213600 
577 2 0     2.989310   -16.375200    17.529700 
578 2 0     5.362290   -15.277600    21.702500 
579 1 0     7.006610   -15.245000    24.637900 
580 1 0     6.162680   -15.766300    23.641000 
581 2 0     4.967230   -17.438400    21.665200 
582 1 0     4.629360   -17.499900    22.725000 
583 2 0     3.642010   -16.917900    22.606200 
584 3 0     5.583250   -17.055500    23.776000 
585 3 0     3.367440   -19.540300    22.171900 
586 1 0     4.418740   -18.930900    22.948200 
587 2 0     5.184130   -19.418500    23.567000 
588 2 0     2.400570   -18.814800    24.040600 
589 1 0     3.034090   -19.506000    23.552700 
590 2 0     2.994100   -20.346800    24.213800 
591 2 0     7.093340   -15.860100    25.581300 
592 1 0    56.540500    55.601500   -39.108300 
593 2 0    51.008500    53.765900   -38.845700 
594 1 0    57.871500    55.938300   -39.345700 
595 2 0    -8.583360   -14.219200    26.439500 
596 1 0    51.795500    53.126500   -39.169900 
597 2 0    52.817000    56.479000    26.053800 
598 1 0    52.418200    57.500300    26.168100 
599 3 0    54.763500    54.213500   -38.226900 
600 1 0    56.138200    54.520100   -38.290500 
601 1 0    52.853500    52.800000   -38.004300 
602 2 0    52.494600    53.175400   -37.061500 
603 2 0    54.615300    52.152000   -38.892500 
604 1 0    54.350200    52.799400   -38.083700 
605 2 0    54.773900    52.174500   -37.247400 
606 2 0    -8.054670    55.294200   -32.487900 
607 2 0    -8.930960    56.867200   -35.684300 
608 2 0    56.970500    52.893200   -37.063600 
609 1 0    57.181200    53.769900   -37.729300 
610 3 0    52.165800    51.816500   -38.764200 
611 2 0    -8.109500    51.181000   -34.703500 
612 1 0    -7.554150    50.224800   -34.376200 
613 2 0    -7.404050    50.347700   -33.280200 
614 2 0    -7.067590    53.169200   -32.953700 
615 1 0    -7.248240    55.221800   -33.214300 
616 1 0    -8.423860    57.848200   -35.756000 
617 2 0    -9.113890    58.120700   -37.792100 
618 2 0    -8.484040    57.496100   -32.958000 
619 1 0    -7.499710    57.706900   -33.397000 
620 2 0    53.262400    57.818100    28.171700 
621 1 0    60.310500    55.557500   -38.918500 
622 1 0    58.531300    54.034600   -37.925600 