#DETDA molecule
936 atoms
4 atom types

-1.5000000000000000e+01 5.0000000000000000e+01 xlo xhi
-1.5000000000000000e+01 5.0000000000000000e+01 ylo yhi
-1.5000000000000000e+01 5.0000000000000000e+01 zlo zhi

Masses

1 12
2 1.008
3 15.999
4 14

Atoms

1 2 0    -8.859820    -8.837760    15.053100 
2 2 0    -7.795590    -8.524380    13.702500 
3 1 0    -7.987390    -8.171380    14.757900 
4 2 0    54.111600    56.302100    15.121900 
5 2 0    51.683300    56.519400    15.279800 
6 2 0    57.508600    54.041700    17.250400 
7 3 0    52.398100    56.462900    17.298600 
8 1 0    52.241900    57.151100    15.993400 
9 1 0    53.683200    57.269000    15.322800 
10 2 0    -6.894550    -7.844380    16.726700 
11 2 0    53.583300    57.789500    14.287900 
12 4 0   -10.341400    -6.919800    16.160700 
13 2 0   -13.539400    -8.785790    17.441800 
14 1 0    -6.796080    -8.352470    15.758800 
15 2 0    -6.631130    -9.421510    16.049100 
16 2 0    -5.797700    -8.161200    15.322000 
17 2 0    62.888300    56.610100    15.293500 
18 1 0    64.677500    57.549900    16.152200 
19 3 0    -0.313780   -11.257200    16.713500 
20 1 0    63.492900    57.562300    15.197900 
21 2 0    61.449500    57.821200    17.233800 
22 2 0    -3.609440   -11.015300    15.647800 
23 1 0     1.072390   -11.165900    16.897300 
24 1 0    64.460200    57.047600    17.489800 
25 2 0    63.817000    57.453600    14.142100 
26 2 0    -2.848950   -12.954300    17.041100 
27 1 0    65.930800    58.057700    15.764600 
28 2 0    -2.530420    -9.902400    16.445600 
29 1 0    -3.186580   -10.747400    16.597600 
30 1 0    -2.548270   -11.923700    17.437400 
31 2 0     1.347360   -10.948700    14.751600 
32 1 0     1.862430   -11.016900    15.750900 
33 1 0     3.203710   -10.841300    15.824100 
34 2 0     3.694340   -10.564500    14.888200 
35 2 0     6.771810   -10.442300    14.523400 
36 1 0     6.546240    -9.500320    14.967600 
37 1 0     5.924490    -9.435870    16.237200 
38 1 0     6.887770    -8.376670    14.280400 
39 2 0     7.348470    -8.401740    13.343100 
40 1 0     5.649150    -8.202120    16.815000 
41 1 0     3.948880   -10.839800    17.058000 
42 1 0     5.449680   -10.650400    17.021000 
43 2 0     5.965260   -11.604100    16.705900 
44 1 0     6.053690    -7.071200    16.140100 
45 1 0    66.892500    58.114900    16.732500 
46 1 0     6.671960    -7.114930    14.870800 
47 2 0     8.343210    -9.989540    17.146800 
48 2 0     9.404890    -7.413510    16.514000 
49 1 0    -8.363450    -6.671300    14.672800 
50 1 0    -9.353950    -6.048240    15.494500 
51 1 0    -9.266270    -4.686020    15.605000 
52 2 0    -9.249120    -2.256010    15.834100 
53 3 0    52.124300    59.441000    14.953600 
54 1 0    -8.489180    -3.782770    14.840000 
55 4 0    -8.637450    -2.346680    14.997300 
56 1 0   -10.377900    -4.056160    16.549000 
57 1 0    51.844500    60.799100    15.052600 
58 1 0    52.470300    61.690500    14.175100 
59 1 0    -7.519220    -5.899790    13.832900 
60 1 0    -7.657800    -4.470770    13.882200 
61 2 0    54.058400    64.808500    15.203400 
62 2 0    53.084300    61.252700    13.389200 
63 1 0    52.429300    63.073000    14.255000 
64 1 0    51.587500    63.713700    15.156100 
65 2 0    52.876900    63.631000    13.435900 
66 2 0    57.084600    64.568000    15.376600 
67 1 0    57.478200    63.528800    15.534100 
68 2 0   -10.751500    -3.081300    16.292900 
69 1 0    50.991000    61.480600    15.948600 
70 2 0   -11.283000    -4.693090    16.572600 
71 1 0    51.610700    58.547200    16.070000 
72 1 0    50.811900    62.861300    15.991000 
73 2 0    50.563400    58.330400    16.134800 
74 2 0    51.649200    58.911600    17.082100 
75 2 0    50.322600    60.807800    16.496400 
76 2 0    50.036000    63.246900    16.660500 
77 1 0    51.380400    65.240400    15.190000 
78 1 0    53.705700    65.324700    16.069200 
79 1 0    52.337000    65.735200    16.279500 
80 2 0    55.687700    65.268100    16.866900 
81 1 0    54.651000    65.641900    17.053400 
82 2 0    51.562600    65.735100    14.227400 
83 2 0    50.325400    65.454300    15.490100 
84 1 0    -7.000630    -3.537040    12.863500 
85 2 0    -7.795800    -2.882540    12.503100 
86 1 0    57.868700    63.281400    17.023100 
87 2 0    66.181500    58.479600    14.791400 
88 2 0    -5.233080    -4.548880    12.073400 
89 1 0    -6.214530    -4.240700    11.757800 
90 2 0    -6.676710    -5.029040    11.134900 
91 2 0    58.208100    61.099300    17.381000 
92 2 0    -6.773750    -6.375100    13.188500 
93 2 0    -5.942310    -3.474050    11.026000 
94 2 0    58.397800    63.484700    14.915800 
95 1 0    61.526700    58.625000    16.489500 
96 1 0    62.485100    58.674700    15.424400 
97 2 0    -6.254310    -2.841910    13.410900 
98 2 0    63.181900    59.854300    13.827900 
99 1 0    62.507000    59.825500    14.659100 
100 1 0    61.560900    60.808000    14.874000 
101 1 0    60.557900    60.744400    15.837600 
102 3 0    59.678800    61.876800    15.929100 
103 2 0    61.495900    61.695500    14.176500 
104 1 0    60.668700    59.655100    16.740500 
105 3 0    -2.461950     0.058050    16.862900 
106 1 0    58.789900    62.013600    17.063200 
107 1 0    -0.338610    -0.966700    17.248400 
108 1 0    -1.714310    -1.106770    17.218300 
109 1 0    -3.942110    -0.062160    17.054200 
110 2 0    -4.529590    -0.687920    16.338500 
111 2 0    59.863900    59.540400    17.490700 
112 1 0    -2.214620    -2.401200    17.450100 
113 2 0     0.068740    -0.005720    16.988400 
114 2 0    58.586900    64.075100    17.248000 
115 2 0    67.890800    58.462900    16.513500 
116 2 0     8.808280    -5.796650    16.341300 
117 3 0     6.926240    -5.963340    14.099800 
118 1 0     6.408580    -4.618610    14.412000 
119 1 0     4.900430    -4.652040    14.220100 
120 2 0     6.823990    -3.692810    13.886300 
121 2 0     4.531860    -5.459200    13.550800 
122 2 0     6.563400    -4.323720    15.417300 
123 2 0     1.852170    -4.399730    17.413400 
124 3 0     4.190820    -3.802070    14.791700 
125 2 0    71.482200    63.938900    14.663800 
126 1 0    72.001200    64.117200    15.626500 
127 2 0    72.118600    65.238000    15.751500 
128 1 0     9.326690    -6.473330    17.016300 
129 2 0     5.859310    -6.107140    16.669100 
130 2 0    70.688600    62.502500    16.535800 
131 1 0    71.442700    63.282000    16.787800 
132 3 0    72.817600    63.133700    16.346100 
133 2 0    67.581200    65.875300    17.190200 
134 2 0    11.214200    -5.227420    16.640000 
135 1 0    10.793400    -5.860470    17.422100 
136 1 0    51.932900    66.426000    17.398000 
137 1 0    -4.564100     1.292310    16.954000 
138 3 0    -6.004130     1.377880    16.881500 
139 2 0    -3.868850     1.957790    16.645400 
140 2 0    54.550900    56.787700    17.914900 
141 1 0    54.699900    57.834900    17.655100 
142 2 0    57.538100    51.656300    17.993000 
143 1 0    57.324400    53.777600    18.276300 
144 3 0    56.962800    56.179900    18.500100 
145 1 0    57.311500    52.471400    18.715900 
146 1 0    57.013700    54.890100    19.093200 
147 2 0    52.610800    56.492900    21.597600 
148 2 0    56.578900    55.358700    21.191900 
149 1 0    52.515800    57.286600    22.436700 
150 2 0    53.282300    56.695700    22.934900 
151 1 0    56.814100    54.542300    20.453300 
152 1 0    56.886600    53.254700    20.947600 
153 1 0    57.064500    52.157200    20.059000 
154 2 0    52.209600    55.146700    23.537500 
155 1 0    50.679600    56.620700    23.919200 
156 1 0    51.302800    55.398400    24.028000 
157 1 0    57.180500    50.751400    20.618200 
158 2 0    57.119900    50.687200    21.718200 
159 2 0    56.709800    53.088400    22.027300 
160 1 0    52.918200    52.729700   -43.796600 
161 3 0    54.074400    54.222800   -42.152500 
162 2 0    51.929200    53.268000   -43.782900 
163 2 0    55.585500    56.764500    19.976000 
164 1 0    56.335900    57.208200    19.336800 
165 1 0    53.654300    52.732400   -45.287000 
166 2 0    53.174800    53.250300   -46.070100 
167 2 0    54.603700    53.118600   -45.280700 
168 1 0    53.558700    52.803700   -42.477100 
169 2 0    54.401100    52.105400   -42.451700 
170 2 0    54.912400    56.474500   -40.977600 
171 3 0    51.201700    57.623900    23.128100 
172 1 0    54.827900    54.314200   -40.980800 
173 2 0    56.215800    50.278900    20.401000 
174 2 0    51.288000    53.390300    24.777600 
175 1 0    50.763400    54.361300    24.757400 
176 3 0    53.157300    51.579400   -44.615000 
177 2 0    52.959100    52.251000   -41.722800 
178 1 0    55.301000    55.559800   -40.495600 
179 2 0    56.891400    57.619300    20.210500 
180 1 0    55.387700    53.228000   -40.271300 
181 1 0    56.210800    55.782800   -39.472500 
182 2 0    55.073500    52.215300   -40.498200 
183 2 0   -14.341900    -8.231380    20.341000 
184 2 0    52.702800    58.114000    19.870800 
185 2 0    63.517200    56.611300    17.829600 
186 1 0    58.367900    50.004600    20.018200 
187 1 0    -1.134000   -11.704300    17.893500 
188 2 0    -1.235030   -10.972700    18.739500 
189 2 0    -0.818960   -12.623900    18.444500 
190 3 0    -3.619410   -11.077600    17.914200 
191 2 0    59.640100    51.715400    19.910600 
192 1 0    59.592400    50.691400    19.750100 
193 2 0    -5.272100   -12.864400    21.928200 
194 2 0    -4.887150    -8.901130    19.683400 
195 1 0    -4.679590    -8.189260    20.467300 
196 2 0    -5.309650   -10.799300    20.724900 
197 1 0    -5.219440   -11.971200    22.565000 
198 1 0    -5.161760   -10.773300    21.850800 
199 1 0    -5.084810   -11.973000    23.943900 
200 1 0    -5.055880    -9.575590    22.556600 
201 3 0    -5.112850    -8.289030    21.887200 
202 1 0    -1.927780   -12.382400    22.265100 
203 1 0    -1.713620   -11.104100    22.751200 
204 1 0     0.461590   -12.423800    21.638700 
205 1 0    -0.799680   -12.996600    21.678100 
206 2 0    -2.930780   -12.818200    22.311300 
207 1 0    -0.440990   -10.495700    22.809500 
208 1 0     0.623430   -11.168300    22.226300 
209 3 0    -0.218830    -9.322120    23.570300 
210 1 0    -3.149890    -8.118200    20.478200 
211 2 0    -2.568860   -10.668400    23.265700 
212 2 0    65.332900    56.585700    19.349900 
213 1 0    -5.072130    -9.568630    23.946200 
214 2 0    -2.694250    -9.080280    20.509600 
215 2 0    -5.024910    -8.638650    24.573100 
216 1 0    -5.070190   -10.750800    24.664500 
217 2 0    -1.503350    -7.670440    22.014500 
218 2 0    -1.686930   -13.308500    24.643000 
219 1 0    -5.207530   -13.206100    24.862900 
220 1 0    -2.311650    -7.178380    21.426200 
221 2 0     0.436550    -7.063650    23.900400 
222 2 0    -3.601690   -14.259400    22.763200 
223 1 0    -5.275190   -14.551900    24.128400 
224 1 0    65.506200    57.026800    18.367500 
225 2 0    61.604700    50.542700    19.116800 
226 2 0    -1.551190   -14.191300    20.142600 
227 3 0    -2.463630    -6.942200    20.044000 
228 2 0     0.432460   -14.022100    23.773100 
229 1 0     0.141100   -14.381900    24.778100 
230 2 0     1.173180   -11.371200    19.082800 
231 2 0    -4.982070    -7.241660    19.979200 
232 2 0    -4.278030   -13.182600    25.470900 
233 1 0     1.166990    -7.662890    24.461000 
234 1 0     1.223870    -9.067300    23.821900 
235 1 0    -1.003370   -14.393100    21.062700 
236 2 0    -1.705630   -14.934400    21.646200 
237 2 0     0.489180   -14.558300    18.471600 
238 2 0    -2.570700    -9.485610    25.474600 
239 1 0    -4.385800   -14.933100    23.099600 
240 1 0    -1.066900   -13.956200    25.283200 
241 1 0     1.753450   -11.188200    18.156900 
242 1 0     8.808080   -10.079900    18.081800 
243 2 0     5.733010   -10.601000    18.085000 
244 1 0     3.128320   -11.011500    18.197300 
245 1 0    66.750900    57.532800    18.005900 
246 2 0     5.210060    -8.050760    17.759300 
247 2 0     1.338660   -12.923200    21.111500 
248 2 0     1.657690   -10.766400    22.207800 
249 2 0     1.905330    -8.974130    22.985300 
250 2 0     1.863100    -9.653950    24.536700 
251 2 0     3.657210   -11.003600    19.145100 
252 3 0     7.764390   -13.008100    18.670300 
253 1 0     7.752690   -14.452500    18.441700 
254 2 0    67.211200    55.708900    19.997500 
255 2 0     7.286330   -14.008800    20.663900 
256 1 0     6.974170   -13.674200    19.660900 
257 2 0     3.509690   -11.905900    22.761700 
258 1 0     3.684860   -12.976200    22.815500 
259 3 0     4.847000   -12.788900    20.771600 
260 1 0     4.427970   -13.599900    21.837000 
261 1 0     7.216260   -11.855300    23.241100 
262 2 0     6.852720   -12.382500    22.333900 
263 1 0     6.712090   -10.598300    23.459800 
264 2 0     6.109830   -10.116800    22.666400 
265 2 0    69.719600    56.464200    19.907900 
266 1 0    67.678600    56.732300    20.071200 
267 1 0    69.042800    56.632200    20.735800 
268 1 0     7.088410    -9.712210    24.461600 
269 3 0    68.967800    55.647100    21.829700 
270 2 0     4.333940    -8.975290    22.637700 
271 3 0     6.457360    -8.444190    24.612700 
272 1 0     8.200400   -12.428800    24.088600 
273 1 0     2.980080   -13.614000    23.826100 
274 1 0     7.959720    -9.084130    21.013700 
275 1 0     5.457590   -13.488100    19.631600 
276 3 0     2.499470    -7.029440    24.361400 
277 2 0     7.580550    -9.900900    20.406900 
278 1 0     7.889500    -7.764490    20.244800 
279 2 0     9.057310    -9.290160    21.152200 
280 1 0     8.062440   -10.294700    25.299200 
281 2 0     6.121460    -7.804070    22.027800 
282 3 0    67.863200    57.605500    18.880700 
283 1 0     8.633130   -11.564900    25.142600 
284 1 0     8.703800   -13.858000    23.940800 
285 2 0     7.486290    -9.015050    22.043900 
286 1 0     8.648990    -7.771210    19.073500 
287 2 0     8.665040   -14.144100    22.855400 
288 2 0     5.292660   -13.041600    18.571300 
289 2 0     2.466940   -12.981500    24.474800 
290 2 0     3.345780    53.520500    89.892200 
291 2 0    66.998500    56.988900    20.881300 
292 2 0     4.206270    -7.893840    25.340300 
293 1 0    69.482800    58.028600    21.249800 
294 2 0     8.102550   -10.367800    18.814900 
295 4 0     5.998500    -6.932770    21.574100 
296 2 0     7.120220   -14.964100    17.819800 
297 2 0     5.015580   -14.482400    19.409400 
298 1 0     7.853470   -14.774200    24.813500 
299 1 0     4.628260   -14.994400    22.134600 
300 2 0     4.472080    54.807600    90.174000 
301 2 0     5.194210    51.982400    90.450600 
302 2 0     9.476880   -10.953900    18.042600 
303 4 0     9.505010    -8.855550    18.609200 
304 2 0     9.951330    -8.531300    17.787100 
305 2 0     9.793720   -13.989400    24.190300 
306 2 0   -15.574600    -7.878890    18.072600 
307 2 0   -15.242600    -9.086450    21.448100 
308 2 0   -15.918700   -10.642400    22.030600 
309 2 0   -15.980300   -12.878700    23.085000 
310 1 0    49.393600    56.787100    24.585000 
311 1 0   -15.928700   -12.747100    22.005800 
312 1 0   -15.817800   -11.516000    21.376700 
313 1 0    49.530700    54.574800    25.455600 
314 2 0    48.924300    57.808700    24.595600 
315 1 0   -16.361300    -7.901230    20.091400 
316 1 0   -15.226800    -8.882190    20.415400 
317 3 0   -15.378000   -10.031400    19.468900 
318 1 0   -15.588400   -11.317100    20.016500 
319 1 0   -15.567800   -12.488600    19.201600 
320 1 0   -15.552500   -13.716000    19.781600 
321 2 0   -15.395800   -12.417700    18.141200 
322 1 0    48.888700    55.818300    25.409400 
323 1 0   -15.784200   -13.880100    21.173200 
324 2 0   -15.501600   -14.574000    19.188900 
325 1 0   -16.332300    -7.331700    18.652500 
326 2 0   -17.304200    -7.509760    18.087700 
327 2 0   -17.282300    -8.345280    20.417800 
328 2 0   -10.066000    -3.972130    17.619100 
329 2 0    53.800000    58.180400    18.087600 
330 2 0    56.695400    58.678600    17.877400 
331 3 0    54.647000    58.630200    22.014800 
332 1 0    53.137200    58.640900    22.020900 
333 2 0   -10.789000    58.611600   -40.278500 
334 2 0    51.334200    58.726000    20.811100 
335 1 0    55.822300    58.441000    18.522700 
336 3 0    56.718600    62.926500    17.899600 
337 1 0    52.390400    58.833800    20.655400 
338 2 0    52.773000    59.285900    22.805300 
339 2 0    54.771500    58.584600    21.020100 
340 4 0    52.457700    60.225500    20.054800 
341 3 0    55.259800    59.531200    19.344200 
342 2 0    54.942800    62.208400    19.452200 
343 2 0    53.378600    62.131200    18.517300 
344 2 0    -8.899140    -4.860150    19.494800 
345 2 0    54.087300    63.665900    18.978200 
346 2 0    53.453300    60.302900    19.627600 
347 2 0    55.728400    63.487200    20.556000 
348 1 0    53.957500    62.620300    19.318200 
349 4 0    54.368400    64.710000    21.355800 
350 2 0    56.179300    63.983200    22.183600 
351 1 0    55.823000    64.340800    21.218800 
352 1 0    52.290100    61.446300    20.804500 
353 1 0    53.443200    63.614200    21.599700 
354 1 0    53.084400    62.601600    20.630500 
355 1 0    -9.820620    60.835000   -41.050200 
356 2 0   -10.616000    61.268100   -41.675500 
357 1 0    52.682200    63.537500    22.775900 
358 1 0    51.379100    61.627400    21.921500 
359 1 0    53.035700    64.595500    23.879700 
360 1 0    51.587100    62.585900    22.899100 
361 2 0    -8.440470    62.439900   -41.500800 
362 3 0    -8.585730    61.194600   -43.274100 
363 1 0    -8.549290    61.392600   -41.797500 
364 1 0    50.032700    60.869600    21.807100 
365 2 0    -9.789950    59.877900   -41.538000 
366 2 0    55.780300    60.411700    21.573500 
367 1 0    56.817700    65.441600    20.649200 
368 2 0    54.169700    64.992100    20.369700 
369 2 0    52.087200    64.779600    24.425100 
370 2 0    53.329600    65.617800    23.345100 
371 2 0    50.866100    62.677600    23.757300 
372 2 0    50.009700    60.056100    21.041200 
373 2 0    56.444100    64.952500    18.581300 
374 2 0    -7.923770    -2.025340    18.812400 
375 1 0    56.338500    65.823100    19.248700 
376 2 0    50.198700    59.621300    23.674100 
377 2 0    55.100100    64.399700    24.432400 
378 2 0    57.927200    59.839300    19.837700 
379 2 0    -7.578370    59.609100   -40.823800 
380 2 0    58.042600    65.242400    23.525200 
381 1 0    54.136200    64.254600    24.909600 
382 1 0    -7.378740    60.679500   -41.069900 
383 2 0    58.107600    64.063300    20.348100 
384 2 0    -7.316290    61.047400   -40.045100 
385 3 0    -9.806540    61.054900   -39.595800 
386 2 0    54.153300    63.229700    25.276800 
387 1 0     0.463650    -2.030260    17.540000 
388 2 0     0.414620    -5.447610    17.709200 
389 1 0    -0.042030    -3.358340    17.788900 
390 1 0    -1.439840    -3.505010    17.746900 
391 2 0    -2.881200    -6.580730    22.167600 
392 1 0     0.931800    -4.496610    18.027100 
393 2 0    -4.425160    -0.510980    17.929700 
394 2 0    -3.307680    -2.580760    17.519200 
395 2 0    -1.929140    -4.483080    17.943200 
396 2 0    59.289300    61.984600    18.079200 
397 2 0    58.203300    59.413700    21.770600 
398 2 0    58.189100    64.152200    24.867700 
399 2 0    60.940300    58.661000    23.917500 
400 3 0    58.221900    64.981300    20.633300 
401 2 0    59.869400    58.997000    25.218000 
402 3 0    58.773100    60.202500    19.467500 
403 2 0    58.449800    63.056200    22.697200 
404 1 0    60.880100    59.238900    24.817800 
405 2 0    -0.259400    -6.039000    19.983200 
406 1 0    64.376900    64.806700    21.114300 
407 2 0    61.116600    65.323000    20.581800 
408 1 0    64.455500    63.397500    21.009600 
409 2 0    65.467400    62.901100    21.030000 
410 1 0    58.742700    64.613700    24.030100 
411 1 0    62.072200    64.743000    20.613400 
412 2 0    58.808800    61.889200    20.870300 
413 2 0    63.377000    61.653000    20.499000 
414 2 0    61.322800    60.617000    19.826900 
415 2 0    61.404300    60.901400    21.373900 
416 1 0    59.297800    60.911400    20.663500 
417 1 0    59.400200    63.600200    23.023300 
418 4 0    58.968100    60.723400    23.239400 
419 1 0    60.821800    61.279800    20.499800 
420 1 0    59.074800    60.008100    21.910600 
421 1 0    60.511900    62.731600    23.591800 
422 1 0    60.140800    61.388900    23.837600 
423 2 0    59.805700    59.211400    21.963400 
424 1 0    62.092800    63.359400    20.509900 
425 1 0    61.167900    60.713200    24.490700 
426 1 0    63.320100    62.707200    20.629800 
427 3 0    60.864000    62.725100    20.249900 
428 2 0     0.090630    -5.786740    22.534600 
429 2 0    59.799900    64.134000    22.096100 
430 1 0    61.757900    63.272000    23.760300 
431 1 0    62.563200    61.119000    24.623800 
432 2 0    61.953600    64.327100    23.595600 
433 1 0    62.795700    62.435300    24.255600 
434 1 0    63.166300    65.489800    20.887300 
435 4 0    63.642700    60.252200    24.843100 
436 1 0     0.450410    -5.344050    20.425700 
437 1 0     0.675920    -5.172910    21.784200 
438 2 0    64.564100    63.603300    23.492800 
439 2 0    64.598400    60.536700    24.637800 
440 2 0    63.269700    59.195600    25.138500 
441 2 0    59.497900    65.249200    24.515500 
442 1 0    64.197800    63.067000    24.442200 
443 2 0    64.939300    62.328300    24.630200 
444 2 0    61.584200    58.753300    25.518400 
445 1 0     1.210990    -4.519880    19.547900 
446 1 0    65.655200    65.574600    21.515000 
447 2 0    65.852200    65.314600    22.581100 
448 2 0    -5.551310     1.226750    19.115100 
449 2 0    63.407700    64.910800    25.612500 
450 2 0     1.542560    -1.849850    17.603200 
451 1 0    66.733100    65.440400    20.496500 
452 1 0     7.026300    -6.668340    20.619400 
453 2 0    68.944100    58.283400    22.140700 
454 1 0     1.586640    -4.286790    22.307200 
455 3 0    69.770500    64.766000    17.701600 
456 1 0    71.000100    63.897600    18.098200 
457 2 0    70.783800    63.064700    18.830400 
458 2 0     2.284700    -6.073160    24.115300 
459 2 0    69.298100    58.836000    20.502300 
460 2 0    71.854500    64.371500    18.654900 
461 2 0     7.813400    -4.536030    18.025400 
462 2 0     7.645360    -3.617690    21.911600 
463 2 0     5.605820    58.841400    89.221400 
464 3 0     1.698790    -4.230040    23.698500 
465 2 0    68.190100    64.659100    22.025000 
466 3 0     5.549780    -5.564440    24.982400 
467 1 0     7.826190    -5.430640    18.636300 
468 2 0     6.543670    -3.520400    19.578400 
469 1 0     6.592990    -3.836940    21.763800 
470 1 0     7.085830    -5.522510    19.824000 
471 2 0    69.989700    64.336800    20.434000 
472 1 0     6.330230    -4.306330    20.278100 
473 2 0     5.260780    -4.506460    20.118100 
474 1 0    69.029400    64.782600    20.082500 
475 1 0    67.980500    64.880800    20.963500 
476 1 0     2.805780    -3.328140    24.240600 
477 2 0     2.688820    -2.256710    24.039000 
478 1 0    68.864900    65.106900    18.701800 
479 1 0     2.298890    -3.477940    21.352000 
480 2 0     3.007940    -2.670510    21.683200 
481 2 0     2.533810    -2.756730    19.340900 
482 1 0     2.089960    -3.527940    19.991200 
483 2 0     3.865650    -3.464250    23.848100 
484 2 0     5.960130    -2.944420    22.034500 
485 2 0     6.258130    -4.626460    22.474000 
486 1 0    67.629200    65.655000    18.286600 
487 1 0     8.513380    -6.620930    18.259200 
488 1 0    66.603700    65.869600    19.144700 
489 2 0    10.827000    -5.262040    18.401000 
490 2 0    11.494300    -6.658520    17.572300 
491 3 0   -16.074000    -6.516100    19.813800 
492 2 0    49.317800    61.517500    21.331200 
493 1 0    49.547400    60.279700    23.140500 
494 2 0    48.628700    59.725200    22.973400 
495 2 0    49.219800    61.006100    23.888200 
496 2 0    50.853900    66.636000    17.523200 
497 1 0    54.240300    66.359100    18.195800 
498 2 0    56.630100    66.359400    21.190100 
499 2 0    57.152800    66.338100    18.781400 
500 3 0    55.017700    66.559800    19.353800 
501 1 0    52.908600    66.741100    18.349300 
502 2 0    52.577200    67.261400    19.234600 
503 1 0    -5.495570     1.822950    18.144300 
504 2 0    -5.351520     2.897850    18.405300 
505 2 0    63.129800    66.574100    20.987400 
506 2 0    65.342700    66.628000    21.755400 
507 2 0    65.693900    66.340100    18.775700 
508 2 0    -6.754070   -23.976000    23.639600 
509 2 0    -1.600940   -23.537100    21.614800 
510 2 0    -1.707770   -23.903300    23.226500 
511 2 0    -7.137820   -15.116500    25.131000 
512 2 0    -7.217070   -22.140000    23.953900 
513 2 0    57.313500    48.175200    19.713600 
514 1 0   -12.375500   -15.958300    23.500700 
515 1 0   -13.232800   -15.519800    22.539300 
516 2 0   -10.165800   -15.538000    25.518600 
517 2 0   -11.293900   -16.031900    23.208300 
518 1 0   -12.746000   -16.348000    24.834800 
519 2 0   -12.884400   -15.351600    21.534500 
520 1 0   -10.439400   -16.687900    25.517400 
521 2 0   -10.048200   -16.868400    24.557700 
522 1 0   -14.631000   -15.543600    22.833300 
523 1 0   -14.156600   -16.351500    25.044000 
524 2 0    -7.364160   -17.260700    24.055100 
525 2 0    -7.742540   -18.882500    22.844500 
526 3 0    -8.089820   -20.864400    21.306900 
527 1 0    -7.069600   -20.140700    21.207600 
528 2 0    -5.766910   -22.927400    25.603800 
529 1 0    60.674000    49.974000    19.282700 
530 1 0    -6.355180   -15.430500    24.422100 
531 1 0    -6.409000   -22.917900    23.713900 
532 2 0    -6.194380   -22.605700    22.693500 
533 2 0    -6.655800   -19.705400    23.268600 
534 2 0    63.811600    45.910800    18.447400 
535 4 0    -5.300110   -22.868200    24.701700 
536 2 0    -4.045330   -23.099300    22.467600 
537 1 0    58.245700    48.664000    19.661300 
538 1 0    -1.769460   -23.074000    22.580500 
539 2 0    -0.951180   -22.356700    22.749700 
540 2 0    -3.280300   -21.944900    21.573500 
541 1 0    -3.192510   -22.391000    22.559400 
542 2 0     0.640790   -16.061300    22.668000 
543 2 0    64.792200    46.714800    20.518700 
544 1 0     0.251050   -15.219300    20.650600 
545 1 0    -6.471020   -16.634300    23.781800 
546 1 0    -6.787610   -19.149700    22.352900 
547 2 0    -6.229800   -20.045600    20.416600 
548 3 0    -5.774300   -18.192100    21.932100 
549 1 0    -5.592530   -17.102100    22.801100 
550 1 0    63.789800    46.258500    20.711400 
551 2 0    63.241600    47.054900    21.317600 
552 2 0    59.222300    46.969200    19.013000 
553 1 0     0.878740   -16.078200    21.632500 
554 3 0    63.317200    44.919900    20.437000 
555 1 0    63.097800    45.883600    19.358600 
556 1 0    59.373000    48.029900    19.145500 
557 2 0    61.211900    45.666000    18.433400 
558 1 0    61.709200    46.431800    19.114300 
559 3 0    61.836100    47.896200    18.697600 
560 1 0    60.652800    48.597600    19.003400 
561 2 0    61.077100    46.184500    19.990100 
562 2 0    -3.905110   -16.472600    21.713200 
563 1 0    -4.558360   -16.162200    22.556400 
564 2 0    -2.081620   -19.921500    22.929400 
565 1 0    -3.476300   -21.408600    23.654100 
566 1 0    -2.757660   -20.225200    23.732500 
567 2 0    -1.926740   -17.795900    23.580700 
568 1 0    -1.983110   -18.092100    24.650200 
569 1 0    -2.915700   -19.296800    24.772500 
570 1 0    -4.415710   -21.708200    24.704100 
571 1 0    -0.482780   -18.449400    25.067700 
572 2 0    -0.287160   -19.454000    24.728200 
573 2 0     0.287750   -17.822800    24.642100 
574 1 0     0.846450   -15.181800    19.358400 
575 1 0     0.944170   -15.223600    25.561500 
576 2 0    -2.356870   -17.152600    25.113800 
577 2 0     8.389000   -15.194900    18.958900 
578 1 0     3.067680   -15.015600    24.019400 
579 2 0     2.385060   -17.513600    22.035700 
580 1 0     1.946700   -16.900200    21.227500 
581 2 0     7.400150   -19.078000    20.677600 
582 2 0     6.300200   -20.469100    20.908900 
583 2 0     4.194390   -20.003500    20.387600 
584 1 0     6.503640   -19.394900    21.187100 
585 3 0     5.915610   -18.687900    22.315900 
586 2 0     7.097960   -15.996200    23.210500 
587 2 0     5.395160   -15.540800    21.481700 
588 1 0     3.974800   -15.684400    23.172300 
589 1 0     7.102970   -15.822400    24.243700 
590 1 0     1.881440   -16.105400    19.057000 
591 1 0     2.500600   -17.006900    19.922800 
592 2 0     3.453760   -19.058900    21.569400 
593 2 0     2.162570   -16.202000    17.975800 
594 1 0     4.001310   -18.932500    20.583800 
595 3 0     3.365310   -18.027500    19.549700 
596 1 0     5.348390   -18.357500    21.006900 
597 2 0     5.699380   -17.544300    20.362200 
598 2 0     4.114740   -16.782300    23.160400 
599 1 0     6.412750   -16.677300    25.129100 
600 2 0     5.884160   -17.477800    24.709200 
601 2 0     2.215740   -16.734200    24.863300 
602 1 0     2.336600   -15.721600    25.159800 
603 1 0   -15.061000   -15.998900    24.089100 
604 2 0   -15.547500   -16.018200    20.991400 
605 2 0   -16.109800   -15.978300    24.404100 
606 1 0   -15.700100   -15.261200    21.799500 
607 2 0   -16.676100   -15.643300    22.198100 
608 2 0    56.575000    56.832500   -39.223800 
609 2 0    -9.891340    53.824500   -34.624500 
610 1 0   -11.185100    55.365900   -35.409800 
611 1 0   -10.583400    54.095400   -35.461500 
612 1 0    -8.922530    51.759200   -35.747500 
613 1 0   -10.683700    53.247900   -36.575700 
614 1 0   -12.177700    54.902900   -37.564600 
615 1 0   -11.552200    53.669500   -37.612100 
616 2 0   -12.730700    55.201200   -38.494500 
617 2 0   -11.674600    53.099100   -38.517400 
618 3 0    -9.963980    52.043000   -36.735500 
619 2 0    -8.851360    52.437400   -34.879900 
620 1 0   -12.056000    55.738100   -36.434300 
621 2 0   -11.002400    56.137700   -34.628600 
622 1 0    56.276600    53.340600   -39.241900 