#DETDA molecule
936 atoms
4 atom types

-1.5000000000000000e+01 5.0000000000000000e+01 xlo xhi
-1.5000000000000000e+01 5.0000000000000000e+01 ylo yhi
-1.5000000000000000e+01 5.0000000000000000e+01 zlo zhi

Masses

1 12
2 1.008
3 15.999
4 14

Atoms

1 1 0    53.864000    54.079800    13.589500 
2 1 0    53.489600    53.050200    14.470600 
3 2 0    53.870200    52.079600    14.291600 
4 1 0    53.241700    55.346300    13.772200 
5 2 0    53.436100    56.130800    13.026600 
6 1 0    52.509900    55.509200    14.897600 
7 1 0    52.695300    53.154700    15.606900 
8 2 0    52.413700    52.352800    16.288100 
9 1 0    52.189400    54.431800    15.785900 
10 2 0    55.178900    54.762800    16.484000 
11 2 0    50.592000    55.518000    16.808400 
12 1 0    51.195100    54.570900    16.955300 
13 2 0    50.443500    53.784700    16.859000 
14 3 0    54.786900    53.935300    12.539400 
15 1 0    56.231200    54.658600    16.680200 
16 2 0    52.023200    56.488000    15.136800 
17 3 0    56.316600    57.740800    16.435700 
18 2 0    56.211000    52.553300    15.762900 
19 1 0    56.751200    53.577100    15.667600 
20 1 0    55.311900    52.496000    12.357100 
21 2 0    55.865100    52.169700    13.260700 
22 2 0    56.674400    53.882400    14.601200 
23 2 0    57.436900    54.229000    12.055800 
24 1 0    57.410600    53.527400    11.238000 
25 1 0    56.256200    52.411600    11.237600 
26 2 0    56.613500    55.646700    16.469900 
27 2 0    54.594400    51.573200    12.276100 
28 2 0    55.651500    52.447100    10.306500 
29 2 0    57.414300    54.099800    10.279700 
30 2 0    57.789200    53.369200    15.910700 
31 3 0    57.631900    52.120200    11.425600 
32 3 0    -5.308810   -12.517700    15.103900 
33 1 0    61.423200    54.709500    16.284400 
34 1 0    60.635400    55.477500    17.341400 
35 2 0    62.408200    55.084400    16.201000 
36 2 0    -0.463030    -9.929510    13.751600 
37 1 0    -1.478700   -10.244900    13.847100 
38 2 0    -1.492780   -10.472500    14.886900 
39 4 0    -4.378280   -10.192900    14.813400 
40 2 0    -5.287520    -9.904800    15.320400 
41 1 0    -3.822050    -9.127220    13.916400 
42 1 0    -2.473050    -9.082730    13.494100 
43 1 0    -1.675070   -11.523600    12.905700 
44 2 0    61.596900    53.616400    16.563000 
45 3 0    59.432100    56.250000    16.848300 
46 2 0    -3.043090   -14.083000    15.641000 
47 1 0    -6.054320    -8.206430    13.545500 
48 1 0    -5.409420   -13.690000    14.418700 
49 2 0    -6.417360    -9.268490    13.686900 
50 2 0    -5.422560    -7.886550    17.249200 
51 2 0    -6.307370    -7.635170    14.444200 
52 1 0    -4.532240    -8.019780    13.382600 
53 1 0    -1.830130    -7.943850    12.937400 
54 2 0    -0.747760    -8.000680    12.741100 
55 2 0    -6.614510    -7.797370    12.680300 
56 1 0    -5.034300   -11.718700    13.943100 
57 2 0    -4.176980   -11.921700    13.278500 
58 2 0    -2.534770   -12.193400    13.093000 
59 2 0    -0.782290   -12.177200    13.127100 
60 1 0    -0.394230   -11.043100    17.431200 
61 2 0    -5.731950   -11.443400    13.192600 
62 2 0    -1.613670   -11.205300    11.788700 
63 3 0     0.042160   -11.199300    16.071300 
64 2 0    -5.602700   -13.860200    13.370900 
65 2 0    -0.688880   -13.742700    15.903100 
66 2 0    -5.145080   -14.823300    16.242600 
67 1 0    -5.271240   -14.973200    15.153100 
68 1 0     1.075710   -11.486800    17.008000 
69 1 0    -2.412580   -14.889200    15.233700 
70 1 0    -1.041480   -14.678900    15.446000 
71 2 0     1.344930   -12.523500    17.209300 
72 2 0     2.537550    -9.933530    16.415200 
73 2 0     3.047000   -13.606400    16.297800 
74 1 0     2.293340   -10.633600    17.279600 
75 2 0     6.189380    -8.131000    14.120400 
76 1 0     6.035460    -7.044320    14.228400 
77 2 0     4.522750    -7.174760    15.911200 
78 1 0     2.900750   -14.573100    16.752800 
79 2 0     1.573830   -14.310000    14.604000 
80 2 0    57.034500    58.340000    16.143500 
81 2 0    55.452500    60.161300    17.066300 
82 2 0    63.378000    58.966800    17.418800 
83 2 0    58.616200    64.809100    17.312300 
84 2 0    61.301200    59.305500    16.941200 
85 1 0    -3.972560    -6.727940    13.046100 
86 1 0    -2.573960    -6.771400    12.783800 
87 2 0    -5.890200    -5.790050    16.517900 
88 3 0    59.144600    59.285000    15.530500 
89 2 0    62.015900    58.920900    15.639400 
90 2 0    -1.033520    -5.919980    11.492500 
91 2 0    -5.783730    -5.701740    13.143100 
92 1 0    -1.772230    -5.574940    12.251100 
93 4 0    -4.750990    -5.517280    12.912600 
94 2 0    -2.390880    -4.823600    11.714700 
95 1 0    -0.948820    -4.843610    13.353400 
96 2 0    61.588600    60.962100    13.699000 
97 2 0    59.973000    61.338300    13.556900 
98 1 0    60.605600    60.590100    13.887300 
99 1 0    60.319400    60.246500    15.367700 
100 1 0    61.651700    59.881500    16.037200 
101 2 0    -1.630910    -4.239720    14.042300 
102 3 0    62.543900    61.094100    16.092800 
103 2 0    59.927400    61.113900    15.823000 
104 2 0    -0.158760    -4.153690    13.012500 
105 2 0    -0.374360    -5.553490    14.000100 
106 3 0    58.954400    62.833000    16.442900 
107 1 0    59.151900    64.211900    16.586700 
108 1 0    60.181900    63.088500    17.127300 
109 2 0    61.115100    63.139300    16.592600 
110 1 0    63.639000    61.053000    16.965500 
111 2 0    64.367100    63.087100    16.696700 
112 1 0    64.546200    62.147400    17.141200 
113 2 0    59.366400    64.912800    15.734300 
114 2 0     7.089710    -6.697440    14.388800 
115 3 0     4.891260    -6.304410    13.798400 
116 1 0     4.999560    -6.446960    15.243700 
117 2 0     5.729300    -4.505400    15.162700 
118 1 0     5.237550    -5.143650    15.942700 
119 2 0     4.302620    -4.565940    16.035100 
120 3 0     5.845900    -5.394880    17.243800 
121 2 0     5.703350    -2.683740    16.565900 
122 2 0    57.098000    48.242200    14.451500 
123 3 0    54.927700    49.639300    13.968100 
124 2 0    56.523400    46.779400    13.725000 
125 1 0    56.255200    47.535600    14.541900 
126 1 0    55.011600    48.228200    14.090100 
127 2 0    54.349300    47.496000    13.668600 
128 1 0    54.303700    49.139000    15.157100 
129 2 0    53.251900    48.925500    15.285100 
130 2 0    54.814800    49.198300    16.129700 
131 3 0    55.908500    47.072000    15.955100 
132 1 0    56.892600    47.133500    16.955100 
133 2 0    58.637200    47.663400    15.632300 
134 1 0    58.258400    47.491200    16.653200 
135 2 0    -6.221630   -15.468900    14.990900 
136 1 0    -0.160240   -15.620200    14.911500 
137 3 0    -4.410020   -16.094100    14.438500 
138 1 0    -3.041650   -15.942200    14.541000 
139 1 0    -2.074230   -16.955300    14.246100 
140 2 0    -2.417350   -17.870900    13.874000 
141 1 0    -0.711730   -16.825000    14.352600 
142 2 0    60.171000    48.068700    17.282900 
143 2 0    -0.034720   -17.620600    13.934300 
144 1 0     1.347670   -15.333000    14.923300 
145 1 0     2.040810   -15.588400    16.217800 
146 2 0     1.763040   -16.003200    14.117900 
147 2 0     1.251250   -17.600400    16.598900 
148 1 0     1.851870   -16.776600    16.954600 
149 2 0    54.971900    57.861400    18.251700 
150 2 0    55.291600    52.423900    17.859100 
151 1 0    51.792200    54.453500    18.392800 
152 2 0    53.569300    55.585200    17.944500 
153 1 0    53.020300    55.032500    18.687300 
154 2 0    50.106900    53.287200    19.173500 
155 1 0    51.066600    53.786800    19.412100 
156 1 0    56.403200    54.219700    18.120400 
157 2 0    53.513500    51.552100    19.357800 
158 1 0    52.846000    54.316700    20.966100 
159 3 0    53.235700    54.059500    22.310000 
160 1 0    54.377300    54.778600    22.862400 
161 2 0    55.125700    55.218000    22.154900 
162 1 0    55.720300    52.669700    23.139000 
163 2 0    54.932900    52.143200    22.589600 
164 1 0    55.091600    53.861200    23.838600 
165 1 0    53.536300    55.071900    19.992700 
166 2 0    54.188400    55.637800    23.417000 
167 2 0    54.416100    55.670600    20.256700 
168 1 0    51.653600    53.695600    20.630200 
169 2 0    51.087000    53.156300    21.446100 
170 1 0    55.502500    51.187900    20.236300 
171 1 0    55.889200    52.994500    18.554200 
172 1 0    56.081000    52.491200    19.876000 
173 1 0    56.703700    53.349900    20.838900 
174 2 0    56.779300    57.676000    19.830800 
175 4 0    56.898900    52.955400    22.209500 
176 2 0    53.591100    51.830500    21.088900 
177 2 0    55.982900    51.933100    23.906500 
178 3 0    56.096700    54.655500    24.536500 
179 2 0    54.268700    53.414600    24.410000 
180 2 0    55.807400    55.607300    24.493700 
181 1 0    57.119200    55.044600    19.034900 
182 2 0    57.547700    53.530200    22.846700 
183 1 0    57.189100    54.566900    20.370600 
184 1 0    57.057100    57.653600    18.798600 
185 2 0   -11.625000    57.356100   -39.851700 
186 2 0    55.944500    50.724300    21.139700 
187 1 0    53.937800    51.182800    20.300900 
188 2 0    52.026400    50.948300   -40.708700 
189 1 0    52.585800    50.997500   -39.761700 
190 2 0    50.118600    56.590000    20.913900 
191 2 0    52.441100    57.043700    21.324900 
192 1 0    53.642300    50.051800   -39.649200 
193 3 0   -10.123400    58.105000   -41.755500 
194 2 0    50.737200    57.481400    19.602500 
195 1 0    52.138800    58.017100    21.221900 
196 2 0    -7.138470   -12.896300    25.394300 
197 2 0    57.230600    56.157000    21.969100 
198 4 0    57.680100    56.301300    18.570200 
199 2 0    57.870300    56.163600    17.520900 
200 1 0    57.950900    55.512100    21.362500 
201 2 0    -7.033850   -14.664400    24.165000 
202 2 0    55.787100    50.449500    19.510700 
203 2 0    53.454500    50.180500    20.488200 
204 2 0    59.193600    54.029700    18.092900 
205 2 0    58.601300    56.237900    20.828800 
206 2 0    -0.947260   -11.908700    17.987500 
207 2 0    61.478400    55.978200    17.821200 
208 2 0    62.548100    51.220400    17.891100 
209 2 0    -5.519490   -14.716200    24.463500 
210 1 0    60.278600    54.377900    18.397800 
211 3 0    61.341800    53.395700    18.511300 
212 2 0    58.534800    54.932400    22.050000 
213 2 0    59.772100    54.808400    19.293700 
214 2 0    -0.409670   -10.194900    18.089300 
215 1 0    61.788500    51.003100    18.669000 
216 1 0    61.060300    52.118600    19.100600 
217 1 0    60.026900    51.816100    19.964600 
218 2 0    59.403900    52.680900    20.302900 
219 1 0    59.649100    50.510200    20.321700 
220 1 0    -1.192750    -8.892450    20.153900 
221 1 0    -1.799640   -10.144500    20.328900 
222 2 0    58.708500    50.271800    20.858600 
223 2 0    -2.900830   -10.281300    20.319900 
224 1 0    -1.068290   -11.255000    20.558400 
225 2 0    -1.584820   -12.262700    20.671800 
226 2 0    -4.111290    -8.365550    20.023800 
227 1 0     0.327050   -11.208600    20.586700 
228 1 0     0.191800    -8.847560    20.345800 
229 3 0    -1.940940    -7.710510    19.949000 
230 1 0    -3.356030    -7.619050    20.296800 
231 2 0     1.043960    -8.688720    23.171600 
232 2 0    -1.746620   -12.154800    23.617000 
233 1 0    -2.764690   -12.337400    24.010700 
234 2 0    -2.646090   -12.790000    25.040800 
235 1 0     0.623700    -8.996120    24.134300 
236 2 0    -0.052400    -8.123090    24.469000 
237 1 0     0.428470   -13.774800    20.468700 
238 2 0     0.479890   -14.212500    22.606000 
239 1 0     0.325420   -14.591000    21.630000 
240 3 0    -3.967290   -12.405200    23.206400 
241 2 0     0.648220    -7.856250    20.338100 
242 2 0    -0.064950    -9.842560    23.934700 
243 1 0    -3.713050   -11.119700    23.810100 
244 2 0    -3.345810   -10.250500    23.237600 
245 2 0    -3.547750    -7.777310    21.386400 
246 2 0    -5.353970   -10.485400    25.046600 
247 1 0     0.050580   -14.334200    19.219300 
248 1 0     0.974950    -9.965230    20.546200 
249 1 0     1.224790   -12.477300    20.600200 
250 2 0    -4.134220    -7.330900    25.098900 
251 1 0    -4.252370   -10.670300    25.170900 
252 2 0    -2.538950    -6.972350    23.298100 
253 2 0     0.063400   -13.695300    18.347300 
254 2 0     0.633480   -14.641000    24.865200 
255 2 0     4.220140    -9.174880    17.569000 
256 3 0     3.354040   -11.630400    17.652000 
257 1 0     4.658670   -11.200500    17.932400 
258 1 0     1.651110   -11.918400    25.393000 
259 1 0     1.825300    -9.265310    25.198000 
260 2 0     1.923270   -12.494600    21.452200 
261 2 0     2.129360    -9.863010    17.993200 
262 1 0     5.032350    -9.870530    17.886800 
263 2 0     6.295160    -8.181860    18.444700 
264 1 0     6.253060    -9.280000    18.344700 
265 1 0     2.321420   -10.711500    25.017400 
266 1 0     2.304050   -13.131800    24.995500 
267 2 0     1.845420   -12.385900    19.733500 
268 2 0     4.112470   -14.061400    18.478600 
269 2 0     2.048670    -9.858090    20.640600 
270 1 0     5.806420   -11.959400    18.244800 
271 2 0     5.755140   -13.000900    17.978800 
272 2 0     5.687850   -13.004400    22.919000 
273 1 0     4.077540   -11.992000    23.829600 
274 1 0     7.076320   -11.491900    18.554700 
275 2 0     7.869050   -12.254500    18.738900 
276 1 0     7.277330   -10.101300    18.790600 
277 1 0     5.341030   -11.991500    22.933600 
278 2 0     3.946490    -9.820960    23.881600 
279 1 0     3.432570   -10.777800    24.167100 
280 1 0     3.551010   -13.194800    24.281400 
281 1 0     5.257400   -11.345800    21.481400 
282 2 0     6.200320   -11.515700    23.540000 
283 2 0     6.128150   -11.506500    20.835700 
284 1 0     8.454960    -9.421210    19.563800 
285 2 0     5.121150   -10.265500    21.487400 
286 1 0     7.980270    -9.017130    20.986100 
287 1 0     7.666680    -9.168970    23.306900 
288 1 0     8.216240    -9.750990    22.160800 
289 2 0     3.437830   -14.709700    21.919400 
290 4 0     4.170450   -14.482700    23.971500 
291 2 0     4.428770   -11.798400    20.859100 
292 1 0     7.405130    -7.715420    20.958300 
293 3 0     6.706330    -7.524320    24.699100 
294 1 0     7.132470    -7.849020    23.409800 
295 2 0     2.623660    -8.481910    25.126400 
296 2 0     6.467470   -14.999700    24.836400 
297 2 0     7.706570    -9.830800    24.199100 
298 2 0     8.926670    -8.573190    18.977400 
299 1 0     7.036260    -7.145820    22.163600 
300 2 0     8.725290   -10.694900    22.158200 
301 2 0    68.775800    57.773600    22.444700 
302 2 0     7.296200    -7.173130    20.061500 
303 2 0     4.470900    -6.969080    24.496300 
304 1 0     3.517970   -14.842300    17.937100 
305 1 0     1.562170   -14.345200    25.481300 
306 2 0     9.391230   -10.058500    19.550100 
307 4 0    49.541400    56.632400    21.822400 
308 1 0    49.865200    57.813200    22.523700 
309 2 0    48.545700    56.486400    21.798100 
310 2 0    47.463700    57.968100    24.857500 
311 1 0    47.713700    57.792500    23.792600 
312 2 0    47.702300    56.666600    23.744900 
313 2 0    56.895400    62.241800    18.231600 
314 1 0    56.009300    58.153400    17.796600 
315 2 0    57.845300    58.428600    18.635200 
316 2 0    53.081000    58.620200    21.316400 
317 2 0    50.897200    59.282300    19.889500 
318 1 0    51.430500    58.315700    19.784000 
319 2 0    56.993900    60.034400    17.547100 
320 1 0    55.997700    59.696700    17.927800 
321 2 0   -10.368500    60.236200   -41.095700 
322 1 0    51.151900    58.444200    22.284800 
323 2 0    52.202600    58.265200    19.066300 
324 1 0    -9.739460    59.007000   -39.434800 
325 1 0    51.479700    59.698100    22.861500 
326 2 0    52.483400    60.135400    22.693800 
327 2 0    56.488900    64.511400    18.845000 
328 1 0    55.924100    63.784200    19.345900 
329 1 0    56.169400    62.432500    19.023200 
330 1 0    55.052100    64.167500    20.353000 
331 1 0    55.356900    61.377300    19.524000 
332 1 0    54.282800    63.117000    20.919900 
333 2 0    53.503200    63.336400    21.692900 
334 3 0    55.408700    60.000000    19.230500 
335 2 0    53.736500    61.087500    20.865100 
336 1 0    54.432700    61.839800    20.457300 
337 1 0    54.764100    65.617200    20.683800 
338 2 0    54.172400    65.641000    21.629600 
339 2 0    54.023900    65.969300    19.922800 
340 2 0    57.825800    62.039000    22.521200 
341 1 0    -9.951080    59.262800   -40.932000 
342 2 0    56.806800    64.158600    24.543600 
343 1 0    -8.900650    58.793100   -42.012700 
344 2 0    -8.734070    59.420700   -42.928200 
345 2 0    51.876000    61.452300    24.961500 
346 2 0    -7.911750    58.536500   -41.637100 
347 1 0    57.862900    63.790900    24.628700 
348 2 0    57.912800    62.704500    24.966400 
349 1 0    51.041600    61.575400    24.290400 
350 2 0    50.325600    62.001700    24.989700 
351 1 0    50.525100    60.360100    23.655300 
352 2 0    52.327400    62.286600    22.678400 
353 2 0    51.933900    63.528700    23.692000 
354 2 0    50.759400    62.887800    22.607800 
355 1 0    51.535300    62.679700    23.297900 
356 1 0    64.012200    59.855200    17.545100 
357 2 0    65.381500    58.524700    18.535800 
358 2 0    58.937200    62.123500    20.442900 
359 1 0    58.374000    62.903300    22.356300 
360 1 0    65.206400    59.563300    18.135000 
361 2 0    59.708400    61.964200    18.787800 
362 1 0    58.414700    63.943800    23.252100 
363 1 0    59.091500    62.954900    21.137800 
364 1 0    -3.919180    -6.297990    19.853200 
365 3 0    -5.236660    -6.169720    19.260100 
366 2 0    -3.186270    -5.475820    19.785100 
367 1 0    60.398300    62.691800    18.600000 
368 2 0    61.226000    61.952800    18.561000 
369 1 0    59.803300    64.013100    20.673600 
370 2 0    -5.538940    -6.422400    24.734700 
371 2 0    -3.006380    -1.211180    20.787000 
372 2 0    -5.655780    -6.465880    21.471800 
373 1 0    -4.480860    -6.265810    25.150100 
374 1 0    -5.192850    -5.785070    20.642600 
375 3 0    60.510900    63.943300    19.466400 
376 2 0    -5.106140    -4.739160    21.003700 
377 1 0    -2.023760    -1.521870    21.278200 
378 2 0    -2.233910    -0.878090    22.184100 
379 2 0    -3.306380    -2.068850    23.468500 
380 3 0    -1.675390    -2.961680    21.354800 
381 2 0    -4.560730    -3.626170    24.951400 
382 1 0    -3.148970    -3.156910    23.415900 
383 1 0    -3.852600    -4.012370    24.272300 
384 1 0    -2.355630    -3.681400    22.364100 
385 1 0    -3.725800    -5.405610    24.189500 
386 1 0    -2.113320    -5.036890    22.494800 
387 1 0    59.870700    65.114900    21.589800 
388 1 0    -2.731880    -5.932890    23.351900 
389 2 0    60.578400    65.966000    21.416400 
390 2 0     0.700090     0.306700    23.886000 
391 2 0    -1.432230    -5.467600    21.745000 
392 2 0    -0.845730    -1.203690    19.578600 
393 1 0    -0.901330    -0.777970    20.563600 
394 1 0    59.152900    65.106100    22.778800 
395 2 0    59.086000    66.022600    23.431700 
396 3 0    -0.251010     0.359060    21.126200 
397 2 0    65.812400    61.349800    20.764300 
398 2 0    65.694200    60.565600    23.260200 
399 2 0    65.700600    60.276500    24.862800 
400 2 0    -0.625150    -1.740100    24.469500 
401 2 0    64.968200    58.820500    25.127300 
402 1 0    65.982000    59.249600    25.122400 
403 1 0     0.474020    -0.833140    21.385900 
404 2 0    60.569100    63.662400    25.472800 
405 2 0     0.447070    -1.442800    22.317200 
406 1 0    65.784900    61.969800    17.740400 
407 1 0    66.148000    60.634600    18.149100 
408 3 0    -1.139600     0.275140    25.353100 
409 1 0    -0.927140    -1.164970    25.325900 
410 2 0    69.043300    58.586200    20.206300 
411 1 0     1.274560     0.213350    24.854100 
412 1 0    68.016700    58.540900    22.093100 
413 1 0    68.179400    58.944500    20.770800 
414 2 0    68.124500    59.723000    18.232200 
415 1 0     6.128280    -4.236150    18.017300 
416 3 0     2.342430    -0.829910    24.877400 
417 1 0     5.939850    -2.891730    17.635500 
418 3 0    67.095900    58.533100    24.358700 
419 1 0    67.166700    59.062000    23.037200 
420 2 0     1.327340    -1.212180    20.766600 
421 2 0     6.028760    -0.746200    18.060900 
422 2 0     2.824160     0.901070    22.821700 
423 1 0     6.176090    -1.777440    18.478000 
424 1 0     3.297640    -0.902580    23.860200 
425 1 0     3.540660     0.089880    22.868800 
426 2 0     6.513750    -6.170390    22.115200 
427 2 0    66.458900    62.801900    18.001400 
428 1 0    67.481500    60.453200    18.807900 
429 1 0    67.370000    60.008600    20.286800 
430 2 0    68.159300    61.336200    18.764900 
431 1 0     6.465720    -4.414470    19.332200 
432 2 0     6.511340    -5.387770    19.782600 
433 1 0     6.601420    -3.389380    20.267700 
434 1 0     6.462350    -2.054410    19.818700 
435 2 0     6.670470    -3.564640    21.314600 
436 2 0     6.803830     0.007370    20.418400 
437 2 0     7.589170    -1.134430    21.428100 
438 1 0     6.609050    -0.957520    20.941500 
439 2 0     4.055800    -2.749630    24.453800 
440 2 0     5.849580    -2.973710    22.701600 
441 1 0     5.228130    -2.045860    22.759700 
442 1 0     5.373240    -1.009490    21.837300 
443 1 0    66.427800    60.151800    22.514500 
444 1 0    66.485100    60.603900    21.184400 
445 1 0     4.189310    -1.929070    23.696200 
446 1 0     4.586840     0.101010    21.912700 
447 2 0     4.682780     0.987730    21.335300 
448 2 0     5.401680    -5.827820    23.995400 
449 1 0     5.502300    -6.575430    24.736300 
450 2 0    46.828700    58.162400    23.230900 
451 1 0    49.007900    58.507200    23.391900 
452 2 0    48.518200    61.499400    24.823500 
453 1 0    49.209300    59.820000    23.936200 
454 4 0    48.268400    60.470400    24.702200 
455 2 0    47.423100    59.958500    24.996100 
456 2 0    55.994400    66.667300    22.919200 
457 1 0    55.995700    66.545100    20.731000 
458 1 0    56.458200    67.050800    21.965400 
459 1 0    57.545500    67.909600    21.960500 
460 2 0    57.928300    68.286300    22.888700 
461 2 0    56.194500    66.679100    18.606800 
462 1 0    56.640200    66.958400    19.539300 
463 1 0    57.723900    67.807300    19.625600 
464 1 0    58.274000    68.314400    20.824300 
465 2 0    58.177400    68.077800    18.656400 
466 3 0    59.468700    69.023200    20.934700 
467 2 0    63.018000    68.496900    19.621400 
468 2 0    59.691300    69.751500    18.869600 
469 1 0    60.203900    69.285100    19.671600 
470 2 0    60.471500    68.392800    19.006500 
471 1 0    61.417400    70.120900    20.035400 
472 3 0    62.304100    70.577200    19.000200 
473 1 0    62.908100    69.588100    19.842300 
474 2 0    61.281400    70.602200    21.011200 
475 2 0    63.570200    69.798800    20.728600 
476 2 0     1.607150     1.285780    24.852300 
477 2 0    -1.972940   -24.695800    20.125800 
478 1 0    -1.458530   -23.805300    20.581000 
479 1 0    -0.026100   -24.102900    21.218100 
480 2 0    -0.113360   -24.414200    22.308800 
481 2 0     0.504200   -24.891200    20.684100 
482 2 0     0.960470   -23.843400    18.837200 
483 2 0    -2.107750   -23.398300    21.310900 
484 3 0    53.888600    49.203800   -40.722400 
485 1 0    56.676400    46.925700    18.270700 
486 2 0    55.678200    46.691500    18.616300 
487 3 0    -6.930750   -16.611200    22.800300 
488 2 0    -7.177770   -17.591700    22.785700 
489 2 0    53.364300    47.252900   -43.600200 
490 1 0    54.355400    47.433600   -43.129400 
491 2 0    53.504100    46.407400   -41.194100 
492 2 0    54.614400    48.505100   -43.280900 
493 3 0    55.224300    46.396500   -42.624400 
494 1 0    54.399000    46.944200   -41.592500 
495 2 0    54.867200    47.419900   -39.611100 
496 2 0    55.824700    48.213900   -40.667900 
497 1 0    54.773500    47.978300   -40.543200 
498 2 0    -8.267080   -19.143000    24.474900 
499 2 0    -9.143790   -21.233700    23.886700 
500 1 0    57.596000    47.195900    19.316200 
501 2 0    57.281700    47.041200    20.355000 
502 1 0    -9.548040   -21.621200    24.839700 
503 2 0    -9.261290   -22.659400    24.881500 
504 2 0   -10.699200   -21.562300    24.808300 
505 4 0    -7.178290   -19.146300    24.561500 
506 2 0    -2.437710   -15.417400    22.384800 
507 2 0    -3.883330   -15.735800    23.326400 
508 2 0    -1.390140   -23.064100    19.793300 
509 2 0    -1.107630   -15.506200    24.388800 
510 1 0    -2.847400   -16.098200    23.163000 
511 1 0    -0.195020   -15.663700    19.072000 
512 1 0     0.101640   -15.934500    21.462800 
513 1 0    59.198800    47.791200    17.622400 
514 1 0    -6.380290   -15.314500    24.808300 
515 1 0    -6.786590   -17.785100    25.111700 
516 1 0    -6.670470   -20.291300    25.272400 
517 1 0    -6.259650   -16.690700    24.128800 
518 1 0    58.890500    47.604900    18.989200 
519 1 0    -2.056840   -16.040500    24.500300 
520 2 0    -5.190570   -16.970400    24.074100 
521 2 0    -4.887490   -19.160300    23.668700 
522 3 0    -2.283110   -17.265400    23.776800 
523 2 0    -3.810720   -18.971300    24.954900 
524 2 0    -2.535110   -19.458800    20.592800 
525 1 0    60.395500    49.428200    19.878500 
526 3 0    -1.980810   -20.866200    18.921500 
527 1 0    -2.068510   -20.355500    20.277700 
528 2 0    -1.735160   -18.289000    18.242200 
529 2 0    -0.171920   -18.461200    17.980100 
530 2 0    -0.493890   -16.013700    18.112100 
531 2 0    -1.767010   -20.831100    21.161900 
532 1 0    61.480200    49.743100    18.989300 
533 2 0    -2.661120   -21.284600    25.158900 
534 1 0    -5.290710   -20.646400    25.243000 
535 2 0    59.494600    47.823200    21.099200 
536 1 0    -0.903590   -20.015500    19.264000 
537 1 0    -0.831570   -18.554500    18.860000 
538 1 0    59.909200    47.989400    20.056000 
539 2 0    61.945000    48.922200    18.427300 
540 2 0     0.100060   -20.381000    19.544900 
541 2 0    60.742700    47.296300    20.048800 
542 2 0    -0.349510   -22.105100    23.037900 
543 1 0     0.461010   -21.866000    22.336500 
544 1 0    -0.185550   -16.493400    20.191800 
545 3 0    -0.527650   -17.856100    20.172800 
546 1 0     1.236020   -20.646400    22.439500 
547 1 0    -0.133820   -20.191300    24.491700 
548 2 0     0.025070   -21.186400    24.907300 
549 2 0    -0.990290   -20.200700    23.903600 
550 2 0     0.086230   -16.618600    22.337900 
551 2 0    -0.390020   -19.537500    25.341300 
552 1 0    -4.346960   -19.750500    24.397700 
553 2 0    -3.612040   -20.274700    23.670900 
554 4 0    -3.230900   -22.062000    25.469400 
555 1 0     1.021860   -19.616600    23.630600 
556 1 0     0.690900   -22.733800    21.247700 
557 2 0     0.762370   -18.558200    23.245400 
558 2 0     2.500000   -15.429400    23.067100 
559 2 0     3.769810   -15.071100    24.780100 
560 4 0     1.657810   -23.098200    18.859800 
561 2 0     1.890110   -22.382300    18.139400 
562 2 0     1.913570   -19.474800    24.279200 
563 1 0     3.576130   -15.314900    22.861000 
564 2 0     1.744720   -18.487100    20.505000 
565 3 0     4.097430   -15.996700    19.966400 
566 1 0     3.433760   -15.999500    18.726700 
567 1 0     2.038010   -20.261600    21.330300 
568 1 0     1.603970   -22.510100    20.148200 
569 4 0     2.533610   -18.890500    21.131900 
570 1 0     2.265290   -21.276400    20.349600 
571 2 0     2.701930   -18.628900    22.094400 
572 1 0     2.554370   -16.963700    18.160700 
573 1 0     3.370580   -20.831900    19.340400 
574 2 0     3.615040   -21.584100    18.648000 
575 2 0     2.524560   -17.932000    18.665400 
576 2 0     2.650680   -17.066300    21.149800 
577 2 0     4.055330   -18.097700    20.799100 
578 3 0     3.760490   -17.708200    23.435800 
579 2 0     5.288760   -16.410400    22.314200 
580 1 0     4.213670   -16.685600    22.422800 
581 1 0     3.741200   -17.051800    20.985700 
582 2 0     4.096310   -17.348000    24.249100 
583 2 0     3.136440   -19.896200    18.833900 
584 2 0     4.341540   -20.673700    19.856900 
585 2 0     6.309690   -16.702700    24.874900 
586 1 0     6.556090   -15.858600    25.508800 
587 1 0   -12.301200    57.850000   -39.188500 
588 2 0   -13.646200    56.161300   -39.275900 
589 1 0   -14.552800    57.894300   -38.307900 
590 1 0   -13.525400    57.222500   -38.989300 
591 1 0    54.226100    50.105800   -38.358100 
592 1 0    52.216200    51.906700   -38.812000 
593 2 0    55.430800    55.865300   -38.506000 
594 2 0    54.050100    53.947600   -38.571800 
595 1 0    54.083600    54.549800   -37.651500 
596 1 0    54.882400    55.661300   -37.616400 
597 1 0    54.991200    56.534600   -36.488200 
598 2 0    54.125500    56.728600   -34.480800 
599 1 0    54.197000    56.106600   -35.399800 
600 1 0    53.380700    54.988700   -35.378500 
601 1 0    53.290000    54.164600   -36.515800 
602 2 0    52.738600    54.698300   -34.507500 
603 2 0    -8.682210   -11.397800    30.617200 
604 2 0   -13.634100    54.775300   -32.259300 
605 1 0    -7.890180   -12.278700    28.707700 
606 2 0    51.367000    52.577800   -38.946800 
607 1 0    52.345000    52.994200   -36.554000 
608 2 0    51.379600    53.398600   -36.829100 
609 1 0    52.853900    51.934100   -37.540400 
610 2 0    52.215400    52.603300   -35.544800 
611 2 0    -8.596170   -10.320300    29.275300 
612 2 0    -8.234640   -13.842400    30.185300 
613 1 0    -7.978690   -13.624400    29.138100 
614 1 0    -7.606980   -14.645200    28.260200 
615 1 0    -7.154320   -14.409300    26.962800 
616 1 0    53.877900    51.006100   -37.354300 
617 1 0   -12.502100   -14.747300    31.568700 
618 1 0    -8.014940   -11.150100    29.727700 
619 1 0    -7.344260   -13.093600    26.463700 
620 2 0    -9.884490   -12.951100    32.034300 
621 2 0    54.446600    50.971300   -36.439400 
622 3 0   -12.567200   -13.299600    31.434100 