ITEM: TIMESTEP
0
ITEM: NUMBER OF ATOMS
936
ITEM: BOX BOUNDS pp pp pp
-1.5000000000000000e+01 5.0000000000000000e+01
-1.5000000000000000e+01 5.0000000000000000e+01
-1.5000000000000000e+01 5.0000000000000000e+01
ITEM: ATOMS id type xu yu zu 
539 3 4.94262 8.51381 -2.71752 
551 2 3.86051 6.30759 0.395882 
557 2 3.71404 8.32341 -0.754308 
543 2 5.69486 6.44075 -0.644058 
535 1 5.77996 7.53939 -0.463428 
536 1 4.70393 8.24761 -1.28286 
531 3 5.9475 7.97434 0.966685 
842 2 8.49515 8.82733 1.12383 
821 4 9.25193 8.67374 0.430143 
843 2 9.1367 8.41724 -0.570138 
556 2 6.70273 7.67367 -1.09798 
825 2 12.2042 8.01596 -2.07994 
824 2 10.4626 7.75482 -1.97658 
818 1 10.5041 8.32898 0.935119 
819 1 11.3119 8.21056 -1.46423 
826 2 11.1682 9.29146 -1.57269 
840 2 13.5417 5.21209 -0.0937142 
820 4 13.1254 6.06722 -0.578013 
816 1 12.4025 6.79752 0.386746 
817 1 11.4437 7.77569 0.00653848 
841 2 12.6358 6.13973 -1.48896 
115 2 24.8647 8.5433 -0.766955 
124 2 30.3627 3.81165 0.186314 
123 2 29.8219 4.07036 -1.89749 
103 1 30.1783 4.86715 -0.0497736 
89 1 25.9579 8.35025 -0.866283 
88 1 26.3997 7.04715 -0.949848 
114 2 25.6278 6.2712 -0.861778 
87 1 27.7486 6.67024 -1.07924 
91 1 28.2612 9.06493 -1.22284 
92 1 28.6512 7.74413 -1.2225 
94 3 28.0748 5.31057 -1.17895 
111 2 30.1617 5.65308 -1.99219 
102 1 29.5335 5.01375 -1.37379 
117 2 29.7006 7.51858 -1.38623 
108 3 30.9772 5.98797 0.370701 
559 2 4.8125 10.5286 -1.63191 
537 1 5.34251 9.57938 -1.8485 
558 2 6.36289 9.73537 -1.50884 
110 2 25.5641 11.0123 -0.5852 
118 2 26.3396 11.1798 -2.11978 
93 1 26.5532 10.8626 -1.06473 
90 1 26.9137 9.38611 -0.984167 
116 2 28.9616 9.87019 -1.4006 
119 2 29.2853 11.7119 -1.75499 
122 2 26.1282 12.253 1.20821 
100 1 27.1192 12.4272 0.795112 
95 1 27.551 11.8064 -0.384991 
98 1 29.1846 13.6993 1.04063 
96 1 28.8509 12.1521 -0.850979 
97 1 29.5562 13.1063 -0.156321 
120 2 30.5706 13.3483 -0.570289 
128 2 32.2273 13.0014 0.887994 
129 2 31.1637 11.5545 0.893518 
640 2 7.90224 25.5121 0.191025 
338 2 33.151 19.1755 -3.70775 
331 2 33.225 21.5176 1.04128 
332 2 33.6784 21.2326 -1.33806 
318 1 34.9027 19.2249 -4.78137 
319 1 36.0583 20.2555 -4.97868 
323 3 35.1338 19.903 -6.01995 
339 2 35.2607 18.1613 -4.63145 
317 1 34.1226 19.6726 -3.57955 
326 2 33.8181 20.7091 -3.68999 
340 2 36.0392 21.1447 -4.41095 
309 3 35.0925 19.1911 -2.46745 
327 2 37.0507 19.8421 -4.80329 
303 1 35.5206 18.6502 -0.155691 
329 2 36.1821 17.8307 -0.526029 
302 1 34.8911 19.4652 -1.12395 
304 1 35.3733 18.8485 1.20397 
306 1 33.9153 20.7251 0.717722 
307 1 34.1164 20.5484 -0.613867 
641 2 5.93978 27.8395 -0.118674 
620 1 5.9991 26.7565 -0.0577856 
628 2 5.99742 26.4162 -1.09441 
624 3 5.87558 25.9344 1.11308 
619 1 7.23919 26.1904 0.747078 
639 2 9.1235 27.1555 1.02898 
610 3 7.46749 28.6474 1.10453 
630 2 6.93344 31.3516 0.89369 
631 2 8.63434 33.1539 1.18446 
626 2 11.264 33.1659 0.572764 
638 2 11.0443 35.2147 0.341482 
637 2 10.9989 37.522 1.15007 
644 2 12.2494 41.429 0.817368 
547 2 0.668969 8.75095 4.13585 
522 1 1.06568 8.09805 4.93753 
517 1 0.883397 8.36789 6.31009 
540 2 2.2162 4.10379 4.39712 
521 1 1.73288 7.00209 4.48552 
546 2 1.81237 6.90651 3.41243 
529 1 4.19691 6.2615 1.44141 
530 1 3.36315 5.5501 2.31248 
552 2 2.44861 5.07887 1.91167 
525 1 3.84663 5.4032 3.63155 
528 1 5.33115 7.00856 1.81006 
526 1 5.07678 5.97383 3.96463 
527 1 5.77054 6.81497 3.11322 
550 2 6.66525 7.32264 3.47454 
833 1 8.99921 8.17784 3.89228 
837 2 9.32842 7.25489 4.38952 
838 2 8.27586 7.86925 3.12047 
548 2 3.51106 4.29906 5.55194 
520 1 2.31171 6.05921 5.38348 
523 1 2.95829 4.8242 4.76627 
518 1 1.36858 7.39965 7.16169 
519 1 2.10465 6.28865 6.74946 
544 2 1.25409 7.54275 8.21877 
545 2 2.50346 5.57591 7.46647 
549 2 5.49717 5.91692 4.97299 
839 2 8.35319 8.65815 4.62805 
836 2 10.8643 9.21274 4.21973 
832 1 10.1686 9.06105 3.38688 
813 1 10.9261 8.31824 2.30959 
827 2 13.4028 4.5595 1.71791 
822 1 13.5325 5.4832 2.30107 
823 1 15.021 5.91009 2.32043 
828 2 13.2245 5.17906 3.31485 
829 2 15.6877 5.03257 2.35494 
831 2 15.3252 6.47766 1.41295 
815 1 12.5838 6.56956 1.79533 
814 1 11.8938 7.37108 2.70788 
830 2 15.2416 6.5396 3.22601 
834 2 12.0607 7.17738 3.77873 
104 1 29.9891 5.67057 1.34248 
112 2 30.1228 5.03247 2.24132 
125 2 29.0901 6.28899 1.52833 
553 2 -0.506167 10.0605 4.79974 
541 2 -1.23572 10.8833 5.88674 
532 1 -0.209657 10.4622 5.76406 
524 3 0.266908 9.55334 6.81854 
533 1 0.747821 11.6461 5.49135 
555 2 -0.527688 13.2367 6.64018 
538 3 0.32197 12.7148 4.60198 
534 1 0.329208 13.0958 5.96749 
542 2 1.11064 13.7167 6.38457 
554 2 1.80277 11.3772 5.74209 
835 2 9.78556 10.0466 3.06733 
197 2 23.8054 12.1875 3.70555 
188 1 24.6242 12.3165 4.38544 
209 2 25.2481 12.8912 3.67514 
211 2 22.028 13.6079 4.81373 
190 1 22.7782 14.0063 5.52482 
198 2 22.3023 13.9769 6.56856 
194 3 24.0018 14.665 5.15927 
189 1 24.1684 13.277 5.45489 
180 3 25.2607 11.182 5.11342 
210 2 24.3958 12.8412 6.45294 
121 2 27.5453 13.6876 2.41558 
99 1 27.9353 13.2891 1.49662 
101 3 30.0196 14.6502 1.71152 
127 2 30.2192 12.1945 3.04147 
113 2 31.1171 14.6654 3.59317 
105 1 31.077 14.1912 2.60946 
126 2 32.1184 14.5506 2.44707 
106 1 31.2033 12.6504 2.81504 
107 1 31.9158 12.1277 1.50359 
109 3 32.3802 11.8315 2.84499 
201 2 28.5704 9.53244 7.67318 
200 2 26.3235 9.4035 6.72706 
174 1 26.9429 10.2981 6.57921 
175 1 28.1861 10.3897 7.14564 
181 1 30.1637 10.8486 8.942 
182 1 31.1445 9.8105 8.96396 
205 2 31.9467 9.76229 8.24605 
173 1 26.4401 11.3795 5.85227 
176 1 28.8891 11.6129 6.98053 
177 1 28.39 12.7367 6.27507 
178 1 27.1285 12.6132 5.7393 
179 1 30.2013 11.7942 7.72808 
202 2 28.9817 13.6729 6.15536 
203 2 26.7547 13.4775 5.1932 
196 2 30.3969 12.8269 8.04201 
204 2 31.0447 11.6117 7.06664 
668 3 -0.15446 25.5547 3.83007 
688 2 0.0832932 24.5841 5.85901 
666 1 -0.1581 25.466 5.26177 
686 2 1.93265 25.2953 4.53946 
325 2 33.4733 19.1116 3.43259 
333 2 33.2134 20.7624 3.14126 
330 2 35.8504 18.1579 1.87 
305 1 34.4622 19.8257 1.65183 
308 1 34.0222 20.0075 3.11082 
310 1 35.1585 20.3547 4.06902 
337 2 36.601 18.8221 3.59283 
315 1 36.4016 19.7057 4.15508 
334 2 33.9818 22.0963 4.6912 
311 1 34.9121 21.5353 4.8179 
312 1 35.8332 21.9018 5.74473 
335 2 35.6413 22.8234 6.36394 
313 1 37.0498 21.2342 5.91975 
314 1 37.3394 20.1555 5.05662 
316 3 37.9598 21.6711 6.89131 
336 2 38.2814 19.6262 5.16313 
320 1 39.2837 20.9021 6.83243 
328 2 39.9541 20.9799 5.94742 
341 2 39.2422 19.8047 6.88113 
343 2 38.2027 20.3456 8.90268 
321 1 40.0338 21.279 8.08824 
324 3 40.4763 20.3517 9.08992 
342 2 40.1542 22.3747 8.16242 
322 1 39.1283 20.7785 9.29299 
685 2 0.601898 27.9632 4.28174 
665 1 1.10018 25.9358 4.39479 
687 2 -0.409718 26.2318 5.98084 
672 2 2.09084 27.6474 3.56011 
680 2 3.92711 27.0409 3.85003 
627 2 8.34652 26.987 2.38328 
618 1 8.08489 27.3049 1.36201 
603 1 8.22399 29.7327 1.56115 
659 1 5.69503 28.0503 4.49553 
677 2 8.24017 28.6763 4.41701 
681 2 6.31431 27.7616 3.64414 
674 2 6.78656 31.087 3.07685 
604 1 7.92766 31.0968 1.31442 
648 1 7.35837 31.5597 3.8696 
605 1 8.84512 32.1319 1.46501 
673 2 7.20116 33.4987 3.0352 
647 1 7.57165 32.9198 3.86495 
657 1 3.52034 28.0925 5.68826 
660 3 2.17151 27.6813 5.80757 
658 1 4.3605 27.6905 4.64259 
656 1 4.19361 28.8492 6.65665 
664 1 1.54117 27.4116 4.50442 
679 2 3.56693 29.1746 7.49231 
654 1 6.33583 28.8105 5.48606 
669 2 8.3925 29.0247 6.11347 
655 1 5.51566 29.217 6.57067 
652 1 7.75868 29.2762 5.23145 
678 2 5.96055 29.7869 7.41129 
649 1 7.84488 30.7741 4.93258 
675 2 8.8743 30.9257 6.87031 
650 1 8.44313 31.4709 6.0033 
646 1 8.19576 33.6394 4.89126 
651 1 8.6473 32.8274 5.97554 
676 2 9.20054 33.2069 6.82013 
633 2 9.76011 28.5766 2.50808 
608 1 9.4575 29.584 2.21457 
632 2 11.4298 30.265 2.77809 
607 1 10.4303 30.5444 2.39886 
606 1 10.1484 31.8677 1.93712 
609 1 11.1642 32.9609 1.662 
634 2 12.1635 32.5649 1.86392 
682 2 7.99316 35.3498 7.098 
653 3 8.10024 35.0289 4.81882 
661 1 8.39727 35.723 6.12172 
662 1 7.85928 37.1044 5.92964 
683 2 7.35632 37.2933 4.99469 
667 3 7.82103 37.9263 7.10484 
663 1 8.9107 38.2423 6.23421 
671 2 8.89812 39.044 5.4876 
616 1 11.0403 35.3862 1.39539 
615 1 11.1172 36.7042 1.86079 
613 1 11.2998 35.9706 4.08342 
612 1 11.2063 34.6236 3.70287 
611 1 11.0255 34.3272 2.3335 
635 2 11.2615 33.7807 4.41929 
629 2 10.252 39.5255 2.04825 
614 1 11.2042 37.074 3.20545 
617 3 11.3335 38.4275 3.61505 
621 1 11.2548 39.3705 2.46578 
622 1 11.7353 40.7341 3.0061 
623 1 12.237 41.74 1.88099 
642 2 11.814 39.2373 1.5746 
643 2 12.3945 40.6322 3.87853 
670 2 9.43923 35.8179 6.46052 
636 2 11.419 36.196 5.15141 
684 2 9.94603 37.8132 6.16485 
625 3 11.0674 41.9564 2.70117 
645 2 13.2327 42.1761 2.1025 
430 2 16.312 -2.49755 14.7785 
429 2 15.8184 -0.846968 14.4628 
427 2 17.3622 1.01693 14.7922 
408 1 16.6896 -1.53434 14.4101 
402 3 17.0196 0.194998 16.9335 
428 2 18.3592 -1.65435 15.9516 
414 2 18.8078 0.854902 15.7458 
406 1 17.7755 0.409609 15.6577 
410 3 17.931 -1.27207 13.7348 
407 1 17.9581 -0.992713 15.1391 
184 1 29.9759 8.68816 10.8547 
183 1 31.0011 8.80894 9.8782 
206 2 31.7125 7.99155 9.85047 
187 3 29.8427 7.50794 11.599 
213 2 29.0183 5.3118 13.1618 
192 1 28.6911 6.28859 13.4915 
199 2 27.7231 6.87165 11.7221 
191 1 28.5839 7.26288 12.3266 
212 2 27.9963 8.1255 12.6744 
195 3 27.8494 6.54251 14.6286 
193 1 29.2265 6.62904 14.9575 
215 2 29.8708 5.82937 15.3871 
214 2 29.7735 7.58624 15.0009 
186 1 29.2255 10.8577 9.97993 
185 1 29.1569 9.82922 10.9021 
208 2 28.4853 11.6471 10.0587 
207 2 28.3654 9.93887 11.6328 
866 2 -0.636191 23.8518 15.9495 
867 2 -0.338324 22.1974 15.6503 
863 1 0.121003 23.1836 15.5901 
864 1 0.404654 23.5328 14.0944 
868 2 1.12476 22.8383 13.5996 
870 2 -0.512468 23.5004 13.4961 
865 2 0.602566 25.0504 17.3183 
869 2 0.879746 24.5254 13.9584 
873 2 1.27908 20.9414 15.4609 
852 4 2.2996 21.0106 15.6473 
848 1 3.62143 22.4886 17.0851 
849 1 2.46412 22.2551 16.3302 
874 2 2.92787 20.2465 15.9808 
844 1 1.41073 23.2338 16.3848 
857 2 4.6772 20.6005 16.415 
850 1 4.86703 21.6538 16.7141 
856 2 5.36637 22.1062 15.8375 
845 1 1.4474 24.3095 17.2747 
470 2 21.7898 19.6897 15.4539 
449 1 22.4776 20.3849 14.9069 
450 1 23.7294 19.6299 14.5499 
457 2 21.8257 20.3365 14.04 
445 3 22.7293 21.7638 15.417 
442 1 21.7495 22.4795 16.1211 
465 2 20.1841 21.0201 15.7021 
443 1 20.4644 21.9142 16.3103 
441 1 21.9724 23.7083 16.7649 
444 1 19.5658 22.37 17.2563 
466 2 18.5709 21.9095 17.3355 
472 2 24.3914 19.9994 16.6425 
451 1 24.7344 19.4301 15.7809 
453 3 24.0131 18.3663 15.1535 
471 2 24.1714 19.9251 13.5839 
464 2 22.8343 24.2997 16.5092 
473 2 25.7856 19.7046 15.6073 
884 1 29.586 23.2149 15.9675 
893 2 28.0729 23.34 14.3305 
889 2 29.2978 22.1893 16.3619 
891 2 29.5027 22.4165 13.9194 
885 1 29.1573 23.2879 14.4795 
890 2 30.7013 23.1622 15.9776 
876 1 28.9709 25.5699 16.5873 
877 1 29.1173 24.2184 16.9939 
892 2 29.6049 24.082 13.8748 
344 2 38.741 21.5315 10.0357 
371 2 12.1874 33.5326 10.1712 
387 2 11.3855 30.1185 12.7248 
367 3 10.7642 31.6683 11.2142 
363 1 12.6242 33.2799 11.1641 
365 1 11.2201 31.1784 12.4751 
385 2 12.9571 31.1276 11.0842 
364 1 12.1751 31.8462 11.3525 
386 2 11.3181 31.7191 13.4239 
359 3 14.0916 33.4281 11.2152 
379 2 12.9779 33.4985 13.6706 
141 1 23.4982 29.7474 15.4592 
140 1 22.2756 29.6813 16.1151 
163 2 21.337 29.71 15.4604 
144 3 23.3401 29.8086 14.0585 
139 1 22.0819 29.6451 17.4455 
142 1 24.6317 29.6994 16.3079 
169 2 25.5034 29.923 13.4053 
156 2 24.5203 29.4972 12.2017 
148 1 24.4459 30.1028 13.1182 
164 2 25.6146 29.6694 15.8093 
374 2 18.6853 33.5629 15.5257 
170 2 23.3654 31.7922 12.3308 
149 1 24.3846 31.5144 12.5388 
152 3 25.5566 32.2589 12.1335 
150 1 25.2579 32.3971 13.5363 
172 2 24.6504 33.1433 14.0265 
896 2 29.2754 25.8538 15.5425 
900 2 29.8577 29.1777 17.3439 
901 2 28.9054 29.8552 16.1021 
895 1 29.2547 28.8761 16.4745 
898 2 27.4105 27.7581 16.0994 
899 2 29.9283 28.4648 15.7007 
894 1 28.1087 27.8776 16.9433 
171 2 25.689 31.7774 14.3571 
384 2 11.9825 33.9161 11.7815 
353 1 15.8824 34.7683 14.8255 
356 1 14.6456 33.9329 12.4208 
357 1 14.0235 33.8344 13.681 
358 1 14.5886 34.22 14.8607 
354 1 16.5659 34.8106 13.5882 
355 1 15.9398 34.4518 12.4212 
378 2 16.4489 34.5764 11.4681 
351 1 16.4743 35.3707 16.0984 
376 2 16.0641 34.7809 16.9693 
380 2 14.0059 34.1687 15.7814 
368 2 15.9977 36.3375 16.2369 
349 1 18.9898 34.5549 15.9369 
348 1 17.9938 35.5067 16.2587 
377 2 17.5695 35.1986 13.553 
346 1 19.7772 36.9592 17.1163 
347 1 18.4558 36.7016 16.8439 
375 2 21.0526 34.0689 16.0043 
345 1 20.7717 35.9929 16.9136 
350 1 20.2962 34.8431 16.2322 
381 2 22.9965 34.3349 16.3351 
352 3 22.0981 36.1726 17.3274 
360 1 23.0464 34.9847 17.213 
369 2 24.111 35.1515 16.9872 
373 2 17.7328 37.4955 17.0912 
792 1 0.350158 -0.557998 23.5283 
798 2 0.685641 -1.19068 22.709 
799 2 -0.0632875 0.354888 23.1081 
800 2 -0.487535 -1.10214 23.9851 
797 2 2.38702 -0.0639459 24.1152 
791 1 1.47702 -0.365073 24.6256 
796 2 1.72953 -1.37432 25.0349 
421 2 17.211 -1.85342 18.4324 
411 2 20.8708 -2.05654 21.2315 
420 2 19.0455 -2.51507 19.9543 
398 1 17.9657 -1.088 18.7083 
399 1 17.8783 0.135146 18.0625 
400 1 18.8323 1.09246 18.4791 
390 1 21.6696 0.155202 22.7333 
391 1 21.9611 -0.194322 21.3994 
392 1 22.8181 0.650758 20.6369 
394 1 21.1735 -1.21198 20.5902 
396 1 20.0014 -0.562207 19.8474 
397 1 18.9621 -1.48501 19.5638 
401 1 19.8728 0.743403 19.3264 
416 2 20.8971 -0.357798 23.2776 
417 2 22.927 0.515459 19.5567 
419 2 21.8318 -1.69319 19.8413 
389 1 22.3246 1.2046 23.3378 
789 4 1.24791 2.5165 24.0166 
793 2 0.8623 4.80693 25.3302 
809 2 1.34613 1.69649 23.3619 
810 2 1.74362 3.45656 23.9391 
585 2 6.84578 3.40229 23.2302 
785 1 1.28031 2.06551 25.3679 
576 1 6.9143 2.81706 25.3889 
577 1 6.41945 3.69369 24.1978 
581 3 5.54251 2.90371 25.0292 
597 2 7.59369 2.04817 25.0357 
598 2 6.71399 4.74453 24.3273 
422 2 18.7814 2.10069 18.0838 
388 1 23.3063 1.94762 22.6484 
393 1 23.4832 1.65648 21.2704 
423 2 20.6526 1.50107 19.5575 
418 2 24.1915 2.27578 20.6941 
403 1 25.2493 3.48469 22.4705 
424 2 25.0364 3.93235 21.5215 
395 3 24.1639 2.83924 23.297 
415 2 22.1125 1.45195 24.3772 
764 2 29.0677 4.36267 18.8116 
412 2 25.759 4.37775 22.8482 
425 2 25.9076 1.53239 21.9388 
404 1 26.355 2.46519 22.1995 
409 3 27.7155 2.86853 21.9337 
405 1 27.5103 2.37308 23.2728 
781 2 30.4738 3.26613 20.5572 
413 2 27.6763 1.36143 23.6907 
759 4 31.4527 3.5567 20.5734 
780 2 32.2315 3.21581 21.1569 
776 2 33.707 3.42385 19.1572 
22 3 33.4221 3.49809 23.8689 
18 1 32.0337 3.85701 23.8537 
39 2 31.1757 3.19745 23.6999 
762 2 28.3105 5.87061 19.525 
779 2 28.9596 7.16215 18.4493 
758 4 29.6577 7.82228 18.8507 
763 2 28.7774 4.51029 20.4941 
757 1 29.1042 5.11223 19.6268 
778 2 29.937 8.8539 18.6918 
26 2 31.6037 4.84542 23.7686 
755 1 30.5015 5.73689 19.8676 
756 1 31.5804 4.93588 20.318 
751 1 32.8005 5.65349 20.6187 
754 1 30.5464 7.13377 19.6877 
753 1 31.6965 7.79713 20.2781 
760 1 31.8448 9.28552 20.4915 
752 1 32.8498 7.05822 20.6032 
426 2 27.4118 3.04853 24.136 
25 2 32.0424 1.68017 25.4027 
17 1 32.872 3.6586 25.1697 
773 2 33.7904 4.18521 21.8068 
771 1 34.5146 3.86075 19.754 
775 2 35.1948 4.38225 19.055 
777 2 35.0471 2.94826 20.142 
774 2 34.823 5.41457 21.2164 
770 1 33.9994 4.78325 20.9055 
772 2 33.7671 7.56194 20.883 
769 2 33.5686 9.71346 19.1441 
761 1 32.4937 9.95054 19.2166 
768 2 32.047 9.56488 18.2761 
765 2 32.4494 9.45671 21.3752 
766 2 30.8701 9.74885 20.6615 
767 2 32.3653 11.025 19.2872 
847 1 3.74708 23.6072 17.9663 
855 2 5.61438 21.6379 17.5247 
872 2 5.67101 23.1751 18.4163 
851 4 4.95515 23.9176 18.6045 
846 1 2.56367 24.3966 18.1233 
853 1 2.59727 25.4409 19.244 
858 2 3.17343 25.012 20.1254 
871 2 4.96937 24.7928 19.1477 
455 2 14.823 20.7466 22.1929 
469 2 16.4909 20.1635 23.751 
446 1 14.4766 21.5564 22.8465 
467 2 13.4256 21.5386 22.4685 
461 2 16.5895 20.9203 21.3087 
438 3 15.3047 22.8638 22.9699 
431 1 16.4026 22.9761 22.1336 
436 1 16.9489 21.9721 21.2828 
432 1 17.0503 24.2242 22.0367 
458 2 16.7078 25.031 22.6644 
447 1 14.5151 21.1187 24.2809 
468 2 14.3513 22.0116 24.8961 
448 1 15.786 20.2748 24.606 
452 3 14.4487 19.7579 24.7733 
456 2 16.4085 20.6763 25.4175 
137 3 23.6295 23.3166 20.1093 
439 1 19.9127 23.5158 17.9744 
155 2 23.1865 19.7125 20.5956 
167 2 22.7192 21.3896 18.8369 
146 1 23.8136 21.1985 19.0253 
435 1 17.8365 22.1167 20.2384 
460 2 18.1566 21.2916 19.5735 
434 1 18.3048 23.4575 20.1131 
166 2 24.9099 22.8956 18.368 
147 1 24.1064 20.1198 20.1324 
151 3 24.5702 20.0201 18.7742 
168 2 24.6096 20.5459 21.0307 
154 2 25.5151 22.1999 19.7849 
145 1 24.5546 22.5011 19.3242 
748 2 25.3719 23.4331 23.3542 
440 1 21.0929 24.2825 17.6654 
463 2 21.3538 25.2371 18.1194 
433 1 17.9881 24.4525 21.0572 
459 2 18.4023 25.482 20.9517 
157 2 21.937 24.8455 21.2794 
130 1 23.5157 24.7095 19.8053 
131 1 22.5705 25.4046 20.5672 
437 1 19.0222 24.2225 18.9991 
454 2 19.629 25.0502 19.4612 
462 2 18.2388 24.8187 18.4782 
160 2 24.9516 24.9287 18.2493 
135 1 24.213 25.4633 18.8731 
902 2 29.5226 21.817 17.9785 
878 1 28.79 23.7437 18.3128 
882 4 28.984 22.4089 18.697 
903 2 28.9567 22.2644 19.717 
887 2 27.5285 23.4409 20.7788 
879 1 28.3481 24.7697 19.1857 
888 2 27.7579 25.1468 21.2847 
881 1 28.1733 24.3444 20.6583 
886 2 29.1293 24.1243 21.1115 
732 2 25.6554 25.1291 22.4935 
727 4 25.6584 23.1716 24.3616 
747 2 25.7155 22.2208 24.8054 
724 1 25.6352 25.5519 24.7134 
723 1 25.9327 24.2435 25.1868 
861 2 2.93414 27.1045 17.8556 
859 2 1.57518 25.649 19.6551 
854 1 3.29573 26.7597 18.8193 
862 2 4.37217 26.6528 18.6511 
860 2 3.15472 27.586 19.5683 
132 1 22.3312 26.761 20.4714 
162 2 21.0442 29.6216 17.8542 
138 1 23.2457 29.5403 18.2799 
158 2 21.5871 27.2231 21.1603 
133 1 23.1817 27.5019 19.6603 
161 2 22.057 29.3545 20.034 
136 1 23.0285 29.0267 19.6722 
153 2 23.7755 29.4588 20.3283 
143 1 24.541 29.6435 17.7006 
165 2 25.4368 29.5142 18.3015 
134 1 24.0755 26.8311 18.7772 
159 2 24.6894 27.3538 18.0304 
726 1 25.1978 25.8019 23.2434 
733 2 25.4089 26.8086 22.8823 
731 2 24.1468 25.6327 23.079 
366 3 22.8653 32.647 18.3014 
362 1 24.0468 33.0777 18.9541 
370 2 24.2098 33.1048 20.0157 
383 2 25.0259 33.2936 18.4871 
750 2 24.5487 27.9006 24.2316 
728 4 24.9017 27.8417 25.2407 
725 1 25.4589 26.6167 25.6095 
897 2 27.4394 28.3379 17.6564 
875 1 28.5022 26.4806 17.5111 
904 2 27.8508 28.0665 19.4844 
880 1 28.2512 26.1447 18.8631 
883 4 27.9726 27.1212 19.8681 
905 2 27.3548 26.7133 20.5781 
257 2 28.6884 33.2028 21.7913 
382 2 22.5419 34.6797 19.2768 
361 1 22.9412 34.0969 18.4462 
372 2 20.0665 37.887 17.6211 
236 1 28.5203 34.0448 21.1082 
238 3 27.3389 34.269 20.34 
235 1 27.4551 35.1484 21.4722 
256 2 27.8337 36.2039 21.4076 
258 2 29.5022 34.4867 20.9261 
255 2 26.7437 33.7645 22.947 
234 1 26.9271 34.8696 22.883 
242 2 25.8434 35.1153 22.8478 
230 3 27.8001 35.5196 23.9133 
228 1 26.5637 34.2193 25.6112 
250 2 25.7519 34.05 24.8691 
227 1 27.6584 35.0025 25.2065 
807 2 1.19092 -1.86047 28.8935 
801 1 1.06709 0.330379 29.4066 
782 1 0.979088 1.09596 28.0875 
783 1 0.782546 0.228983 26.9752 
784 1 1.13838 0.664406 25.6621 
803 2 0.471103 -0.800728 27.0862 
804 2 0.0997225 0.111374 29.8667 
806 2 2.59081 -0.904616 28.2267 
802 1 1.8723 -0.992614 29.114 
805 2 1.52094 0.976102 30.2084 
808 2 2.46415 -1.27852 30.0071 
300 2 4.12656 -3.84443 33.4441 
298 2 3.66442 -1.73322 32.8089 
273 3 4.32885 0.217142 33.4143 
294 2 8.81264 1.15988 33.0059 
271 1 6.74662 0.704557 33.2067 
293 2 6.97259 -0.344875 33.4438 
285 2 5.11126 -1.47566 32.1316 
277 1 4.59893 -1.21103 33.0886 
270 1 5.40897 1.10192 33.2033 
31 2 31.4735 1.11457 28.3328 
13 1 28.1679 0.192342 33.6061 
14 1 28.6696 1.07114 32.6879 
35 2 27.3779 -0.447266 33.2485 
36 2 28.1925 1.17196 31.716 
30 2 30.8251 1.06693 30.6545 
795 2 0.878557 5.01519 27.007 
786 1 1.31127 2.86435 26.5032 
787 1 1.32514 2.4552 27.8686 
811 2 1.87366 2.82147 29.8398 
790 4 1.58234 3.31516 28.9602 
788 1 1.38221 4.39565 26.2492 
812 2 1.88599 4.26641 28.5828 
575 1 7.30283 3.54495 26.6723 
584 2 6.38427 3.88661 27.1403 
596 2 7.50793 2.79185 27.3978 
794 2 2.40998 4.75096 26.1552 
567 3 8.33916 4.5351 26.255 
560 1 8.61619 5.49199 27.2411 
590 2 7.42405 4.76692 28.8788 
565 1 8.20958 5.48172 28.5954 
564 1 8.7808 6.2729 29.5498 
292 2 4.21244 2.85672 32.9249 
291 2 6.05967 4.46338 32.5996 
269 1 5.25503 2.48955 32.911 
268 1 6.28128 3.4037 32.7098 
272 1 7.78769 1.55835 32.9342 
267 1 7.62496 2.92917 32.6987 
265 1 8.92216 3.74193 32.7344 
290 2 8.74465 4.73849 32.3296 
589 2 8.45914 6.25652 30.6107 
587 2 9.76037 6.59426 25.8296 
561 1 9.5257 6.49535 26.8883 
562 1 10.1167 7.32729 27.7957 
563 1 9.79249 7.18689 29.1677 
588 2 10.8179 8.13158 27.5086 
591 2 10.5144 9.14602 29.7681 
566 1 10.4451 8.12119 30.1772 
592 2 12.8086 7.36246 28.6607 
569 1 12.8853 7.30918 29.7593 
570 1 14.0946 6.96255 30.3215 
593 2 14.8989 6.68059 29.6142 
282 2 9.76772 3.31442 32.1633 
583 2 9.78957 8.29606 31.0749 
568 1 11.8185 7.61776 30.638 
572 1 13.3027 7.32449 32.5273 
573 1 12.0593 7.60095 32.0262 
594 2 13.4102 7.34722 33.6269 
595 2 11.257 7.83453 32.7549 
571 1 14.3903 7.01389 31.7068 
574 3 15.6978 6.90433 32.2009 
578 1 16.1756 7.07066 33.6195 
600 2 17.4635 5.39309 33.3427 
601 2 18.4053 8.06159 32.2707 
580 1 18.6791 7.14171 32.8009 
602 2 19.1301 6.42827 32.0824 
579 1 17.5346 6.43701 33.6227 
3 1 29.7684 4.23574 29.9228 
2 1 30.1811 4.23281 28.5989 
1 1 30.7299 3.13344 27.9435 
8 3 30.9802 3.32473 26.5467 
5 1 30.6181 1.9639 30.0891 
6 1 31.022 2.0252 28.7523 
37 2 32.9386 2.21429 26.6962 
16 1 32.1716 2.59209 26.0184 
28 2 29.9915 5.14764 28.0122 
29 2 29.3906 5.16616 30.3778 
38 2 33.0458 4.59849 25.7683 
4 1 30.0138 3.08852 30.7265 
9 1 29.6915 1.96122 33.0928 
7 1 29.9371 3.19438 32.2382 
24 2 29.2093 3.98105 32.5544 
32 2 30.8298 3.7583 32.595 
705 2 6.89306 15.7707 30.0753 
707 2 5.21974 15.2428 30.3733 
709 1 2.19296 11.9945 33.6821 
710 2 4.11785 14.5255 32.1677 
711 2 1.96816 14.1184 33.1307 
713 2 3.16141 11.4603 33.6606 
714 2 1.74519 11.8199 32.7038 
690 1 4.5845 14.2246 33.1031 
703 2 6.94101 13.5204 31.3062 
699 1 6.16877 15.5263 30.8659 
704 2 7.71941 14.7855 32.1254 
698 1 6.71352 14.4714 31.8483 
691 1 5.97456 14.0306 33.1024 
706 2 5.95576 16.4908 31.3688 
716 2 8.28354 12.8689 33.1404 
508 2 9.84259 14.3271 33.6655 
516 2 14.4255 14.7617 31.7662 
494 1 13.6773 13.9851 31.8994 
496 3 12.3148 14.0508 31.4787 
515 2 14.2192 13.0385 32.1168 
493 1 12.4635 14.4151 32.8751 
514 2 12.588 15.4409 33.282 
500 2 11.3505 12.7905 33.3742 
499 2 3.86374 19.4825 28.5515 
512 2 4.9391 18.7566 29.7311 
489 1 6.67415 20.7594 30.0679 
498 2 7.40332 19.934 30.0594 
510 2 7.49173 21.4629 29.8417 
491 1 4.93298 19.3051 28.7788 
490 1 5.82024 20.6409 28.8193 
511 2 5.21615 21.5714 28.6065 
495 3 6.05549 19.5544 27.9141 
501 2 4.64995 20.5188 33.6986 
481 3 5.85295 20.9025 31.3107 
474 1 6.39139 20.3629 32.4938 
475 1 5.64029 20.1085 33.6686 
478 1 8.1354 19.0281 33.6623 
479 1 7.68099 19.8096 32.5919 
503 2 9.1294 18.5748 33.609 
504 2 8.38387 19.9287 31.7311 
736 2 28.8993 21.6785 27.8108 
738 2 29.3691 22.9285 26.7137 
734 2 27.0248 22.0041 26.3755 
730 1 28.6725 22.7179 27.5443 
737 2 28.9768 23.4078 28.3725 
729 1 27.1767 22.8604 27.081 
735 2 26.5521 22.5556 27.9226 
722 1 26.5484 24.1006 26.5098 
721 1 26.4612 25.1994 27.364 
741 2 26.7303 25.0522 28.3858 
749 2 25.0386 28.6401 25.9085 
739 1 25.5653 27.4421 28.0516 
742 2 24.6317 27.1485 28.5725 
743 2 25.2655 28.395 27.6106 
251 2 25.474 33.1376 27.1269 
744 2 27.4934 28.2814 28.668 
720 1 25.8713 26.409 26.986 
740 1 26.6853 27.6669 29.0891 
745 2 27.2061 26.7129 29.261 
746 2 26.4138 28.088 30.0576 
247 2 27.3754 32.3058 29.3061 
222 1 26.9268 33.315 29.2313 
239 2 25.8208 33.1475 29.233 
229 1 26.3607 33.7355 26.9032 
49 1 37.98 30.1972 28.8255 
44 1 39.198 30.418 29.4974 
74 2 37.5838 29.1797 28.7051 
65 3 41.1292 26.1102 29.366 
61 1 41.8741 27.2802 29.7114 
60 1 40.3772 27.0115 30.1947 
51 3 39.8496 29.3228 30.0782 
59 1 39.4984 27.9962 29.5292 
68 2 39.5939 27.7927 28.4275 
80 2 38.4126 27.7245 29.6002 
73 2 36.1952 30.9597 27.8301 
67 2 36.0481 33.1932 27.1074 
50 1 36.6488 33.6254 27.9312 
47 1 37.58 32.5354 28.4269 
48 1 37.1856 31.189 28.2982 
46 1 38.8721 32.7555 28.9625 
71 2 40.6462 31.968 29.8925 
45 1 39.6453 31.748 29.4822 
81 2 40.1883 26.9778 31.2817 
79 2 36.2077 33.1817 30.8052 
82 2 42.0658 28.1104 29.0234 
69 2 42.5575 27.4504 30.5627 
245 2 25.1466 34.414 30.7949 
246 2 25.4845 35.7537 32.8242 
248 2 29.2571 34.8641 28.2617 
249 2 29.5118 35.7077 26.0444 
219 1 27.282 34.1442 30.4575 
224 1 27.3095 33.9568 27.8984 
225 1 28.4755 34.674 27.533 
226 1 28.633 35.1669 26.2543 
244 2 29.5063 34.1793 30.4379 
77 2 33.5217 36.8202 28.7887 
220 1 26.1769 34.6174 31.1552 
221 1 26.3647 35.4104 32.2819 
218 1 28.5819 34.4923 30.9357 
216 1 27.6108 35.6658 32.8543 
217 1 28.7 35.2121 32.0896 
243 2 29.7087 35.4457 32.4495 
58 3 32.9329 36.5124 31.1418 
62 1 32.7743 36.2452 32.6228 
70 2 32.752 35.1938 32.9889 
83 2 31.8796 36.5838 33.1837 
85 2 33.2212 38.9277 32.8151 
52 1 35.7277 34.2458 28.9862 
76 2 35.1116 35.5669 27.3368 
53 1 34.9891 35.2974 28.4073 
54 1 34.1013 35.9856 29.1868 
57 1 35.5712 33.9638 30.3554 
75 2 37.2568 34.4592 27.4881 
72 2 39.2253 33.7747 29.0049 
55 1 33.9173 35.7128 30.5451 
56 1 34.6357 34.6276 31.1131 
78 2 34.4393 34.3664 32.1518 
63 1 33.9978 36.8487 33.1545 
84 2 34.9452 36.4561 32.7469 
64 1 34.0181 38.3989 33.3594 
86 2 34.9538 38.8959 33.1233 
281 3 6.22783 -3.06829 33.8439 
279 1 4.92616 -3.59768 34.1406 
301 2 4.72485 -4.11986 35.0692 
278 1 5.28507 -2.03171 34.1782 
299 2 5.08287 -1.61959 35.156 
23 3 24.574 -2.40945 35.5976 
43 2 23.4004 -0.698737 36.4841 
42 2 23.9774 -0.372229 34.8405 
20 1 25.5582 -1.49552 36.124 
21 1 24.0363 -1.08884 35.6578 
27 2 27.1372 -2.66487 35.4268 
12 1 28.5844 0.112955 34.9344 
15 3 27.9305 -0.685361 35.8878 
11 1 29.7037 0.90168 35.2718 
19 1 26.8457 -1.59796 35.3915 
34 2 30.0984 0.860753 36.299 
40 2 26.5329 -1.58812 34.3316 
41 2 25.7199 -1.26203 37.1816 
288 2 7.1682 4.04945 34.8865 
262 1 9.25613 3.83638 34.2264 
263 1 8.22519 3.9989 35.2086 
264 1 8.55071 4.23128 36.5145 
289 2 7.79194 4.45394 37.2659 
295 2 8.67235 6.3293 38.2232 
283 2 8.79393 5.46469 39.58 
261 1 10.5953 3.68683 34.6389 
259 1 9.9111 4.21422 36.913 
260 1 10.8636 3.82054 35.9651 
287 2 11.3887 3.42463 33.9583 
286 2 11.9069 3.75154 36.2693 
586 2 15.6094 6.6477 34.4159 
599 2 16.3237 8.06283 34.0563 
266 3 10.3651 4.7444 38.1455 
274 1 9.45111 5.74767 38.7654 
275 1 10.4214 6.76142 39.3629 
280 3 10.371 7.19224 40.7258 
297 2 11.2161 5.06212 40.6157 
296 2 11.0192 7.24654 38.5784 
276 1 11.3406 6.13693 40.4464 
284 2 12.3756 6.31733 40.1967 
582 3 18.7054 6.98586 34.2421 
10 1 30.2787 1.79202 34.3787 
33 2 31.084 2.45678 34.7341 
689 1 3.8081 13.9173 34.2715 
708 1 2.39042 13.517 34.0097 
712 2 1.7023 13.8438 34.7991 
715 2 1.54769 11.483 34.4146 
697 4 3.81292 13.4947 36.7093 
718 2 2.8086 13.3402 36.5791 
694 1 4.51842 13.6356 35.488 
700 2 7.69423 12.9594 36.6545 
717 2 8.28676 12.5556 35.0253 
693 1 5.90518 13.4478 35.4201 
692 1 6.67815 13.4698 34.23 
695 1 6.57591 12.9819 36.7514 
696 4 8.03226 13.0492 34.1463 
509 2 8.18893 16.1349 34.1035 
487 1 8.96815 15.942 34.8328 
482 1 9.05164 16.8369 35.9091 
719 2 4.4462 13.2113 37.4972 
701 2 6.25381 11.9806 37.0837 
702 2 6.42168 13.6672 37.6023 
486 1 9.88107 14.9297 34.5953 
485 1 10.8908 14.6473 35.5399 
484 1 10.9074 15.4264 36.7025 
483 1 10.0615 16.4972 36.8477 
492 1 12.1373 13.3446 33.9166 
488 3 11.9416 13.7233 35.3297 
513 2 12.8746 12.5379 33.763 
506 2 10.1721 17.1199 37.7392 
507 2 11.6804 15.2375 37.4538 
502 2 5.40265 19.2704 35.6243 
476 1 6.08269 19.3503 34.7593 
477 1 7.35721 18.7659 34.7941 
480 1 8.03357 17.9822 35.9571 
505 2 8.5446 18.7862 36.5326 
497 2 7.25246 17.7379 36.7172 
932 2 21.0343 22.5991 37.4709 
931 2 21.3639 21.6852 38.9199 
928 2 23.5309 22.3153 37.3275 
926 1 21.6307 22.6022 38.3893 
925 1 23.1531 22.8585 38.2431 
930 2 21.1619 23.3497 39.0055 
929 2 23.3729 23.9509 37.9613 
911 1 23.6466 22.8826 40.833 
906 1 23.8854 22.4277 39.4645 
927 2 25.1489 21.284 38.0674 
924 2 25.4117 19.1558 37.9182 
907 1 24.8792 21.4603 39.1552 
908 1 25.4432 20.7268 40.1867 
909 1 25.1369 21.0227 41.5591 
910 1 24.19 22.0411 41.8205 
935 2 22.6424 24.5606 40.282 
914 4 22.9092 24.0278 41.1544 
921 2 27.5026 20.1383 39.9694 
922 2 26.6863 18.029 38.3466 
915 1 26.5228 19.7118 39.7801 
916 1 26.412 19.0966 38.3645 
923 2 27.1503 19.4481 37.6325 
920 2 26.471 18.916 40.5078 
241 2 26.2036 32.9261 36.4939 
254 2 25.1184 33.8718 35.3527 
240 2 25.5897 36.0325 34.6827 
223 3 27.8048 36.1658 34.1597 
231 1 26.6482 36.1796 35.0791 
253 2 27.8698 34.8943 36.376 
232 1 26.7829 35.147 36.2197 
233 1 25.7757 33.9282 36.271 
252 2 26.3741 37.1223 35.5843 
237 3 25.7737 34.9795 37.2339 
66 3 33.8471 37.4665 34.4436 
912 1 23.7228 22.1817 43.3053 
917 2 22.6436 22.3937 43.3701 
936 2 22.7639 24.2234 42.1412 
919 2 23.8247 21.2511 43.9151 
918 2 24.2324 22.9535 43.9433 
933 2 26.448 19.6438 42.2835 
913 4 25.7561 20.3476 42.6502 
934 2 25.749 20.9916 43.4552 
