ITEM: TIMESTEP
2600000
ITEM: NUMBER OF ATOMS
936
ITEM: BOX BOUNDS pp pp pp
-1.5000000000000000e+01 5.0000000000000000e+01
-1.5000000000000000e+01 5.0000000000000000e+01
-1.5000000000000000e+01 5.0000000000000000e+01
ITEM: ATOMS id type xu yu zu 
836 2 -8.85982 -8.83776 15.0531 
835 2 -7.79559 -8.52438 13.7025 
832 1 -7.98739 -8.17138 14.7579 
258 2 54.1116 56.3021 15.1219 
256 2 51.6833 56.5194 15.2798 
372 2 57.5086 54.0417 17.2504 
238 3 52.3981 56.4629 17.2986 
235 1 52.2419 57.1511 15.9934 
236 1 53.6832 57.269 15.3228 
838 2 -6.89455 -7.84438 16.7267 
257 2 53.5833 57.7895 14.2879 
821 4 -10.3414 -6.9198 16.1607 
842 2 -13.5394 -8.78579 17.4418 
833 1 -6.79608 -8.35247 15.7588 
837 2 -6.63113 -9.42151 16.0491 
839 2 -5.7977 -8.1612 15.322 
75 2 62.8883 56.6101 15.2935 
52 1 64.6775 57.5499 16.1522 
481 3 -0.313778 -11.2572 16.7135 
50 1 63.4929 57.5623 15.1979 
72 2 61.4495 57.8212 17.2338 
499 2 -3.60944 -11.0153 15.6478 
474 1 1.07239 -11.1659 16.8973 
57 1 64.4602 57.0476 17.4898 
67 2 63.817 57.4536 14.1421 
511 2 -2.84895 -12.9543 17.0411 
53 1 65.9308 58.0577 15.7646 
512 2 -2.53042 -9.9024 16.4456 
491 1 -3.18658 -10.7474 16.5976 
490 1 -2.54827 -11.9237 17.4374 
501 2 1.34736 -10.9487 14.7516 
475 1 1.86243 -11.0169 15.7509 
476 1 3.20371 -10.8413 15.8241 
502 2 3.69434 -10.5645 14.8882 
506 2 6.77181 -10.4423 14.5234 
483 1 6.54624 -9.50032 14.9676 
482 1 5.92449 -9.43587 16.2372 
484 1 6.88777 -8.37667 14.2804 
507 2 7.34847 -8.40174 13.3431 
487 1 5.64915 -8.20212 16.815 
477 1 3.94888 -10.8398 17.058 
480 1 5.44968 -10.6504 17.021 
497 2 5.96526 -11.6041 16.7059 
486 1 6.05369 -7.0712 16.1401 
54 1 66.8925 58.1149 16.7325 
485 1 6.67196 -7.11493 14.8708 
872 2 8.34321 -9.98954 17.1468 
859 2 9.40489 -7.41351 16.514 
813 1 -8.36345 -6.6713 14.6728 
818 1 -9.35395 -6.04824 15.4945 
817 1 -9.26627 -4.68602 15.605 
840 2 -9.24912 -2.25601 15.8341 
230 3 52.1243 59.441 14.9536 
816 1 -8.48918 -3.78277 14.84 
820 4 -8.63745 -2.34668 14.9973 
819 1 -10.3779 -4.05616 16.549 
227 1 51.8445 60.7991 15.0526 
226 1 52.4703 61.6905 14.1751 
814 1 -7.51922 -5.89979 13.8329 
815 1 -7.6578 -4.47077 13.8822 
244 2 54.0584 64.8085 15.2034 
249 2 53.0843 61.2527 13.3892 
225 1 52.4293 63.073 14.255 
224 1 51.5875 63.7137 15.1561 
248 2 52.8769 63.631 13.4359 
82 2 57.0846 64.568 15.3766 
61 1 57.4782 63.5288 15.5341 
824 2 -10.7515 -3.0813 16.2929 
228 1 50.991 61.4806 15.9486 
826 2 -11.283 -4.69309 16.5726 
234 1 51.6107 58.5472 16.07 
229 1 50.8119 62.8613 15.991 
242 2 50.5634 58.3304 16.1348 
255 2 51.6492 58.9116 17.0821 
250 2 50.3226 60.8078 16.4964 
251 2 50.036 63.2469 16.6605 
222 1 51.3804 65.2404 15.19 
218 1 53.7057 65.3247 16.0692 
219 1 52.337 65.7352 16.2795 
243 2 55.6877 65.2681 16.8669 
217 1 54.651 65.6419 17.0534 
239 2 51.5626 65.7351 14.2274 
247 2 50.3254 65.4543 15.4901 
822 1 -7.00063 -3.53704 12.8635 
828 2 -7.7958 -2.88254 12.5031 
60 1 57.8687 63.2814 17.0231 
76 2 66.1815 58.4796 14.7914 
831 2 -5.23308 -4.54888 12.0734 
823 1 -6.21453 -4.2407 11.7578 
830 2 -6.67671 -5.02904 11.1349 
80 2 58.2081 61.0993 17.381 
834 2 -6.77375 -6.3751 13.1885 
829 2 -5.94231 -3.47405 11.026 
69 2 58.3978 63.4847 14.9158 
46 1 61.5267 58.625 16.4895 
47 1 62.4851 58.6747 15.4244 
827 2 -6.25431 -2.84191 13.4109 
73 2 63.1819 59.8543 13.8279 
48 1 62.507 59.8255 14.6591 
49 1 61.5609 60.808 14.874 
44 1 60.5579 60.7444 15.8376 
51 3 59.6788 61.8768 15.9291 
74 2 61.4959 61.6955 14.1765 
45 1 60.6687 59.6551 16.7405 
395 3 -2.46195 0.0580516 16.8629 
59 1 58.7899 62.0136 17.0632 
389 1 -0.33861 -0.966701 17.2484 
388 1 -1.71431 -1.10677 17.2183 
403 1 -3.94211 -0.0621614 17.0542 
424 2 -4.52959 -0.687916 16.3385 
71 2 59.8639 59.5404 17.4907 
393 1 -2.21462 -2.4012 17.4501 
415 2 0.0687401 -0.00571817 16.9884 
81 2 58.5869 64.0751 17.248 
77 2 67.8908 58.4629 16.5135 
858 2 8.80828 -5.79665 16.3413 
488 3 6.92624 -5.96334 14.0998 
492 1 6.40858 -4.61861 14.412 
493 1 4.90043 -4.65204 14.2201 
500 2 6.82399 -3.69281 13.8863 
514 2 4.53186 -5.4592 13.5508 
513 2 6.5634 -4.32372 15.4173 
411 2 1.85217 -4.39973 17.4134 
496 3 4.19082 -3.80207 14.7917 
172 2 71.4822 63.9389 14.6638 
150 1 72.0012 64.1172 15.6265 
171 2 72.1186 65.238 15.7515 
853 1 9.32669 -6.47333 17.0163 
508 2 5.85931 -6.10714 16.6691 
170 2 70.6886 62.5025 16.5358 
149 1 71.4427 63.282 16.7878 
152 3 72.8176 63.1337 16.3461 
163 2 67.5812 65.8753 17.1902 
861 2 11.2142 -5.22742 16.64 
854 1 10.7934 -5.86047 17.4221 
220 1 51.9329 66.426 17.398 
404 1 -4.5641 1.29231 16.954 
409 3 -6.00413 1.37788 16.8815 
425 2 -3.86885 1.95779 16.6454 
383 2 54.5509 56.7877 17.9149 
362 1 54.6999 57.8349 17.6551 
373 2 57.5381 51.6563 17.993 
346 1 57.3244 53.7776 18.2763 
352 3 56.9628 56.1799 18.5001 
347 1 57.3115 52.4714 18.7159 
345 1 57.0137 54.8901 19.0932 
455 2 52.6108 56.4929 21.5976 
375 2 56.5789 55.3587 21.1919 
446 1 52.5158 57.2866 22.4367 
467 2 53.2823 56.6957 22.9349 
350 1 56.8141 54.5423 20.4533 
349 1 56.8866 53.2547 20.9476 
348 1 57.0645 52.1572 20.059 
461 2 52.2096 55.1467 23.5375 
431 1 50.6796 56.6207 23.9192 
436 1 51.3028 55.3984 24.028 
351 1 57.1805 50.7514 20.6182 
376 2 57.1199 50.6872 21.7182 
374 2 56.7098 53.0884 22.0273 
321 1 52.9182 52.7297 -43.7966 
316 3 54.0744 54.2228 -42.1525 
342 2 51.9292 53.268 -43.7829 
381 2 55.5855 56.7645 19.976 
360 1 56.3359 57.2082 19.3368 
322 1 53.6543 52.7324 -45.287 
344 2 53.1748 53.2503 -46.0701 
343 2 54.6037 53.1186 -45.2807 
320 1 53.5587 52.8037 -42.4771 
341 2 54.4011 52.1054 -42.4517 
335 2 54.9124 56.4745 -40.9776 
438 3 51.2017 57.6239 23.1281 
313 1 54.8279 54.3142 -40.9808 
368 2 56.2158 50.2789 20.401 
460 2 51.288 53.3903 24.7776 
435 1 50.7634 54.3613 24.7574 
324 3 53.1573 51.5794 -44.615 
328 2 52.9591 52.251 -41.7228 
312 1 55.301 55.5598 -40.4956 
369 2 56.8914 57.6193 20.2105 
314 1 55.3877 53.228 -40.2713 
311 1 56.2108 55.7828 -39.4725 
336 2 55.0735 52.2153 -40.4982 
586 2 -14.3419 -8.23138 20.341 
469 2 52.7028 58.114 19.8708 
79 2 63.5172 56.6113 17.8296 
353 1 58.3679 50.0046 20.0182 
489 1 -1.134 -11.7043 17.8935 
498 2 -1.23503 -10.9727 18.7395 
510 2 -0.818961 -12.6239 18.4445 
495 3 -3.61941 -11.0776 17.9142 
377 2 59.6401 51.7154 19.9106 
354 1 59.5924 50.6914 19.7501 
632 2 -5.2721 -12.8644 21.9282 
639 2 -4.88715 -8.90113 19.6834 
618 1 -4.67959 -8.18926 20.4673 
633 2 -5.30965 -10.7993 20.7249 
607 1 -5.21944 -11.9712 22.565 
608 1 -5.16176 -10.7733 21.8508 
606 1 -5.08481 -11.973 23.9439 
603 1 -5.05588 -9.57559 22.5566 
610 3 -5.11285 -8.28903 21.8872 
659 1 -1.92778 -12.3824 22.2651 
658 1 -1.71362 -11.1041 22.7512 
655 1 0.461591 -12.4238 21.6387 
654 1 -0.799685 -12.9966 21.6781 
681 2 -2.93078 -12.8182 22.3113 
657 1 -0.440994 -10.4957 22.8095 
656 1 0.623426 -11.1683 22.2263 
660 3 -0.218828 -9.32212 23.5703 
619 1 -3.14989 -8.1182 20.4782 
680 2 -2.56886 -10.6684 23.2657 
78 2 65.3329 56.5857 19.3499 
604 1 -5.07213 -9.56863 23.9462 
640 2 -2.69425 -9.08028 20.5096 
630 2 -5.02491 -8.63865 24.5731 
605 1 -5.07019 -10.7508 24.6645 
628 2 -1.50335 -7.67044 22.0145 
206 2 -1.68693 -13.3085 24.643 
609 1 -5.20753 -13.2061 24.8629 
620 1 -2.31165 -7.17838 21.4262 
686 2 0.436546 -7.06365 23.9004 
635 2 -3.60169 -14.2594 22.7632 
611 1 -5.27519 -14.5519 24.1284 
56 1 65.5062 57.0268 18.3675 
378 2 61.6047 50.5427 19.1168 
677 2 -1.55119 -14.1913 20.1426 
624 3 -2.46363 -6.9422 20.044 
205 2 0.432459 -14.0221 23.7731 
182 1 0.1411 -14.3819 24.7781 
504 2 1.17318 -11.3712 19.0828 
627 2 -4.98207 -7.24166 19.9792 
634 2 -4.27803 -13.1826 25.4709 
665 1 1.16699 -7.66289 24.461 
664 1 1.22387 -9.0673 23.8219 
652 1 -1.00337 -14.3931 21.0627 
669 2 -1.70563 -14.9344 21.6462 
675 2 0.489182 -14.5583 18.4716 
794 2 -2.5707 -9.48561 25.4746 
612 1 -4.3858 -14.9331 23.0996 
183 1 -1.0669 -13.9562 25.2832 
479 1 1.75345 -11.1882 18.1569 
494 1 8.80808 -10.0799 18.0818 
505 2 5.73301 -10.601 18.085 
478 1 3.12832 -11.0115 18.1973 
55 1 66.7509 57.5328 18.0059 
509 2 5.21006 -8.05076 17.7593 
678 2 1.33866 -12.9232 21.1115 
679 2 1.65769 -10.7664 22.2078 
672 2 1.90533 -8.97413 22.9853 
685 2 1.8631 -9.65395 24.5367 
503 2 3.65721 -11.0036 19.1451 
194 3 7.76439 -13.0081 18.6703 
190 1 7.75269 -14.4525 18.4417 
70 2 67.2112 55.7089 19.9975 
210 2 7.28633 -14.0088 20.6639 
189 1 6.97417 -13.6742 19.6609 
200 2 3.50969 -11.9059 22.7617 
174 1 3.68486 -12.9762 22.8155 
180 3 4.847 -12.7889 20.7716 
173 1 4.42797 -13.5999 21.837 
89 1 7.21626 -11.8553 23.2411 
115 2 6.85272 -12.3825 22.3339 
88 1 6.71209 -10.5983 23.4598 
114 2 6.10983 -10.1168 22.6664 
84 2 69.7196 56.4642 19.9079 
62 1 67.6786 56.7323 20.0712 
63 1 69.0428 56.6322 20.7358 
87 1 7.08841 -9.71221 24.4616 
66 3 68.9678 55.6471 21.8297 
874 2 4.33394 -8.97529 22.6377 
94 3 6.45736 -8.44419 24.6127 
90 1 8.2004 -12.4288 24.0886 
175 1 2.98008 -13.614 23.8261 
850 1 7.95972 -9.08413 21.0137 
188 1 5.45759 -13.4881 19.6316 
668 3 2.49947 -7.02944 24.3614 
856 2 7.58055 -9.9009 20.4069 
848 1 7.8895 -7.76449 20.2448 
855 2 9.05731 -9.29016 21.1522 
92 1 8.06244 -10.2947 25.2992 
873 2 6.12146 -7.80407 22.0278 
58 3 67.8632 57.6055 18.8807 
91 1 8.63313 -11.5649 25.1426 
93 1 8.7038 -13.858 23.9408 
857 2 7.48629 -9.01505 22.0439 
847 1 8.64899 -7.77121 19.0735 
118 2 8.66504 -14.1441 22.8554 
197 2 5.29266 -13.0416 18.5713 
201 2 2.46694 -12.9815 24.4748 
921 2 3.34578 53.5205 89.8922 
83 2 66.9985 56.9889 20.8813 
112 2 4.20627 -7.89384 25.3403 
64 1 69.4828 58.0286 21.2498 
515 2 8.10255 -10.3678 18.8149 
852 4 5.9985 -6.93277 21.5741 
198 2 7.12022 -14.9641 17.8198 
209 2 5.01558 -14.4824 19.4094 
95 1 7.85347 -14.7742 24.8135 
178 1 4.62826 -14.9944 22.1346 
920 2 4.47208 54.8076 90.174 
923 2 5.19421 51.9824 90.4506 
516 2 9.47688 -10.9539 18.0426 
851 4 9.50501 -8.85555 18.6092 
871 2 9.95133 -8.5313 17.7871 
110 2 9.79372 -13.9894 24.1903 
602 2 -15.5746 -7.87889 18.0726 
599 2 -15.2426 -9.08645 21.4481 
594 2 -15.9187 -10.6424 22.0306 
595 2 -15.9803 -12.8787 23.085 
432 1 49.3936 56.7871 24.585 
573 1 -15.9287 -12.7471 22.0058 
572 1 -15.8178 -11.516 21.3767 
434 1 49.5307 54.5748 25.4556 
458 2 48.9243 57.8087 24.5956 
579 1 -16.3613 -7.90123 20.0914 
578 1 -15.2268 -8.88219 20.4154 
574 3 -15.378 -10.0314 19.4689 
571 1 -15.5884 -11.3171 20.0165 
570 1 -15.5678 -12.4886 19.2016 
569 1 -15.5525 -13.716 19.7816 
593 2 -15.3958 -12.4177 18.1412 
433 1 48.8887 55.8183 25.4094 
568 1 -15.7842 -13.8801 21.1732 
592 2 -15.5016 -14.574 19.1889 
580 1 -16.3323 -7.3317 18.6525 
601 2 -17.3042 -7.50976 18.0877 
600 2 -17.2823 -8.34528 20.4178 
825 2 -10.066 -3.97213 17.6191 
370 2 53.8 58.1804 18.0876 
382 2 56.6954 58.6786 17.8774 
452 3 54.647 58.6302 22.0148 
447 1 53.1372 58.6409 22.0209 
551 2 -10.789 58.6116 -40.2785 
456 2 51.3342 58.726 20.8111 
361 1 55.8223 58.441 18.5227 
65 3 56.7186 62.9265 17.8996 
448 1 52.3904 58.8338 20.6554 
468 2 52.773 59.2859 22.8053 
748 2 54.7715 58.5846 21.0201 
727 4 52.4577 60.2255 20.0548 
366 3 55.2598 59.5312 19.3442 
731 2 54.9428 62.2084 19.4522 
733 2 53.3786 62.1312 18.5173 
843 2 -8.89914 -4.86015 19.4948 
732 2 54.0873 63.6659 18.9782 
747 2 53.4533 60.3029 19.6276 
254 2 55.7284 63.4872 20.556 
726 1 53.9575 62.6203 19.3182 
728 4 54.3684 64.71 21.3558 
241 2 56.1793 63.9832 22.1836 
233 1 55.823 64.3408 21.2188 
723 1 52.2901 61.4463 20.8045 
725 1 53.4432 63.6142 21.5997 
724 1 53.0844 62.6016 20.6305 
535 1 -9.82062 60.835 -41.0502 
543 2 -10.616 61.2681 -41.6755 
720 1 52.6822 63.5375 22.7759 
722 1 51.3791 61.6274 21.9215 
739 1 53.0357 64.5955 23.8797 
721 1 51.5871 62.5859 22.8991 
557 2 -8.44047 62.4399 -41.5008 
539 3 -8.58573 61.1946 -43.2741 
536 1 -8.54929 61.3926 -41.7975 
729 1 50.0327 60.8696 21.8071 
556 2 -9.78995 59.8779 -41.538 
902 2 55.7803 60.4117 21.5735 
232 1 56.8177 65.4416 20.6492 
749 2 54.1697 64.9921 20.3697 
742 2 52.0872 64.7796 24.4251 
743 2 53.3296 65.6178 23.3451 
741 2 50.8661 62.6776 23.7573 
734 2 50.0097 60.0561 21.0412 
252 2 56.4441 64.9525 18.5813 
841 2 -7.92377 -2.02534 18.8124 
231 1 56.3385 65.8231 19.2487 
738 2 50.1987 59.6213 23.6741 
745 2 55.1001 64.3997 24.4324 
903 2 57.9272 59.8393 19.8377 
558 2 -7.57837 59.6091 -40.8238 
893 2 58.0426 65.2424 23.5252 
740 1 54.1362 64.2546 24.9096 
537 1 -7.37874 60.6795 -41.0699 
750 2 58.1076 64.0633 20.3481 
559 2 -7.31629 61.0474 -40.0451 
531 3 -9.80654 61.0549 -39.5958 
746 2 54.1533 63.2297 25.2768 
390 1 0.463647 -2.03026 17.54 
419 2 0.41462 -5.44761 17.7092 
391 1 -0.0420342 -3.35834 17.7889 
392 1 -1.43984 -3.50501 17.7469 
641 2 -2.8812 -6.58073 22.1676 
394 1 0.931796 -4.49661 18.0271 
412 2 -4.42516 -0.510978 17.9297 
418 2 -3.30768 -2.58076 17.5192 
417 2 -1.92914 -4.48308 17.9432 
68 2 59.2893 61.9846 18.0792 
168 2 58.2033 59.4137 21.7706 
892 2 58.1891 64.1522 24.8677 
886 2 60.9403 58.661 23.9175 
237 3 58.2219 64.9813 20.6333 
887 2 59.8694 58.997 25.218 
151 3 58.7731 60.2025 19.4675 
889 2 58.4498 63.0562 22.6972 
881 1 60.8801 59.2389 24.8178 
420 2 -0.259397 -6.039 19.9832 
133 1 64.3769 64.8067 21.1143 
157 2 61.1166 65.323 20.5818 
134 1 64.4555 63.3975 21.0096 
159 2 65.4674 62.9011 21.03 
885 1 58.7427 64.6137 24.0301 
131 1 62.0722 64.743 20.6134 
167 2 58.8088 61.8892 20.8703 
160 2 63.377 61.653 20.499 
166 2 61.3228 60.617 19.8269 
154 2 61.4043 60.9014 21.3739 
146 1 59.2978 60.9114 20.6635 
884 1 59.4002 63.6002 23.0233 
882 4 58.9681 60.7234 23.2394 
145 1 60.8218 61.2798 20.4998 
147 1 59.0748 60.0081 21.9106 
877 1 60.5119 62.7316 23.5918 
878 1 60.1408 61.3889 23.8376 
155 2 59.8057 59.2114 21.9634 
130 1 62.0928 63.3594 20.5099 
879 1 61.1679 60.7132 24.4907 
135 1 63.3201 62.7072 20.6298 
137 3 60.864 62.7251 20.2499 
421 2 0.0906349 -5.78674 22.5346 
890 2 59.7999 64.134 22.0961 
876 1 61.7579 63.272 23.7603 
880 1 62.5632 61.119 24.6238 
896 2 61.9536 64.3271 23.5956 
875 1 62.7957 62.4353 24.2556 
132 1 63.1663 65.4898 20.8873 
883 4 63.6427 60.2522 24.8431 
397 1 0.450413 -5.34405 20.4257 
398 1 0.675923 -5.17291 21.7842 
897 2 64.5641 63.6033 23.4928 
905 2 64.5984 60.5367 24.6378 
904 2 63.2697 59.1956 25.1385 
891 2 59.4979 65.2492 24.5155 
894 1 64.1978 63.067 24.4422 
898 2 64.9393 62.3283 24.6302 
888 2 61.5842 58.7533 25.5184 
396 1 1.21099 -4.51988 19.5479 
136 1 65.6552 65.5746 21.515 
153 2 65.8522 65.3146 22.5811 
426 2 -5.55131 1.22675 19.1151 
900 2 63.4077 64.9108 25.6125 
416 2 1.54256 -1.84985 17.6032 
138 1 66.7331 65.4404 20.4965 
849 1 7.0263 -6.66834 20.6194 
85 2 68.9441 58.2834 22.1407 
399 1 1.58664 -4.28679 22.3072 
144 3 69.7705 64.766 17.7016 
148 1 71.0001 63.8976 18.0982 
156 2 70.7838 63.0647 18.8304 
810 2 2.2847 -6.07316 24.1153 
86 2 69.2981 58.836 20.5023 
169 2 71.8545 64.3715 18.6549 
865 2 7.8134 -4.53603 18.0254 
869 2 7.64536 -3.61769 21.9116 
934 2 5.60582 58.8414 89.2214 
402 3 1.69879 -4.23004 23.6985 
165 2 68.1901 64.6591 22.025 
108 3 5.54978 -5.56444 24.9824 
845 1 7.82619 -5.43064 18.6363 
867 2 6.54367 -3.5204 19.5784 
864 1 6.59299 -3.83694 21.7638 
844 1 7.08583 -5.52251 19.824 
164 2 69.9897 64.3368 20.434 
863 1 6.33023 -4.30633 20.2781 
866 2 5.26078 -4.50646 20.1181 
142 1 69.0294 64.7826 20.0825 
143 1 67.9805 64.8808 20.9635 
406 1 2.80578 -3.32814 24.2406 
414 2 2.68882 -2.25671 24.039 
141 1 68.8649 65.1069 18.7018 
400 1 2.29889 -3.47794 21.352 
422 2 3.00794 -2.67051 21.6832 
423 2 2.53381 -2.75673 19.3409 
401 1 2.08996 -3.52794 19.9912 
427 2 3.86565 -3.46425 23.8481 
868 2 5.96013 -2.94442 22.0345 
870 2 6.25813 -4.62646 22.474 
140 1 67.6292 65.655 18.2866 
846 1 8.51338 -6.62093 18.2592 
139 1 66.6037 65.8696 19.1447 
860 2 10.827 -5.26204 18.401 
862 2 11.4943 -6.65852 17.5723 
582 3 -16.074 -6.5161 19.8138 
735 2 49.3178 61.5175 21.3312 
730 1 49.5474 60.2797 23.1405 
736 2 48.6287 59.7252 22.9734 
737 2 49.2198 61.0061 23.8882 
245 2 50.8539 66.636 17.5232 
216 1 54.2403 66.3591 18.1958 
253 2 56.6301 66.3594 21.1901 
240 2 57.1528 66.3381 18.7814 
223 3 55.0177 66.5598 19.3538 
221 1 52.9086 66.7411 18.3493 
246 2 52.5772 67.2614 19.2346 
405 1 -5.49557 1.82295 18.1443 
413 2 -5.35152 2.89785 18.4053 
158 2 63.1298 66.5741 20.9874 
161 2 65.3427 66.628 21.7554 
162 2 65.6939 66.3401 18.7757 
645 2 -6.75407 -23.976 23.6396 
713 2 -1.60094 -23.5371 21.6148 
714 2 -1.70777 -23.9033 23.2265 
638 2 -7.13782 -15.1165 25.131 
644 2 -7.21707 -22.14 23.9539 
380 2 57.3135 48.1752 19.7136 
565 1 -12.3755 -15.9583 23.5007 
564 1 -13.2328 -15.5198 22.5393 
584 2 -10.1658 -15.538 25.5186 
590 2 -11.2939 -16.0319 23.2083 
560 1 -12.746 -16.348 24.8348 
589 2 -12.8844 -15.3516 21.5345 
575 1 -10.4394 -16.6879 25.5174 
596 2 -10.0482 -16.8684 24.5577 
563 1 -14.631 -15.5436 22.8333 
561 1 -14.1566 -16.3515 25.044 
637 2 -7.36416 -17.2607 24.0551 
629 2 -7.74254 -18.8825 22.8445 
625 3 -8.08982 -20.8644 21.3069 
622 1 -7.0696 -20.1407 21.2076 
718 2 -5.76691 -22.9274 25.6038 
355 1 60.674 49.974 19.2827 
616 1 -6.35518 -15.4305 24.4221 
623 1 -6.409 -22.9179 23.7139 
719 2 -6.19438 -22.6057 22.6935 
642 2 -6.6558 -19.7054 23.2686 
385 2 63.8116 45.9108 18.4474 
697 4 -5.30011 -22.8682 24.7017 
712 2 -4.04533 -23.0993 22.4676 
358 1 58.2457 48.664 19.6613 
709 1 -1.76946 -23.074 22.5805 
715 2 -0.951182 -22.3567 22.7497 
711 2 -3.2803 -21.9449 21.5735 
708 1 -3.19251 -22.391 22.5594 
674 2 0.640792 -16.0613 22.668 
387 2 64.7922 46.7148 20.5187 
649 1 0.251053 -15.2193 20.6506 
615 1 -6.47102 -16.6343 23.7818 
621 1 -6.78761 -19.1497 22.3529 
643 2 -6.2298 -20.0456 20.4166 
617 3 -5.7743 -18.1921 21.9321 
614 1 -5.59253 -17.1021 22.8011 
365 1 63.7898 46.2585 20.7114 
386 2 63.2416 47.0549 21.3176 
379 2 59.2223 46.9692 19.013 
648 1 0.878741 -16.0782 21.6325 
367 3 63.3172 44.9199 20.437 
364 1 63.0978 45.8836 19.3586 
357 1 59.373 48.0299 19.1455 
371 2 61.2119 45.666 18.4334 
363 1 61.7092 46.4318 19.1143 
359 3 61.8361 47.8962 18.6976 
356 1 60.6528 48.5976 19.0034 
384 2 61.0771 46.1845 19.9901 
636 2 -3.90511 -16.4726 21.7132 
613 1 -4.55836 -16.1622 22.5564 
710 2 -2.08162 -19.9215 22.9294 
689 1 -3.4763 -21.4086 23.6541 
690 1 -2.75766 -20.2252 23.7325 
704 2 -1.92674 -17.7959 23.5807 
698 1 -1.98311 -18.0921 24.6502 
691 1 -2.9157 -19.2968 24.7725 
694 1 -4.41571 -21.7082 24.7041 
699 1 -0.482782 -18.4494 25.0677 
706 2 -0.287156 -19.454 24.7282 
705 2 0.287755 -17.8228 24.6421 
650 1 0.846447 -15.1818 19.3584 
181 1 0.94417 -15.2236 25.5615 
703 2 -2.35687 -17.1526 25.1138 
211 2 8.389 -15.1949 18.9589 
176 1 3.06768 -15.0156 24.0194 
673 2 2.38506 -17.5136 22.0357 
647 1 1.9467 -16.9002 21.2275 
671 2 7.40015 -19.078 20.6776 
684 2 6.3002 -20.4691 20.9089 
670 2 4.19439 -20.0035 20.3876 
663 1 6.50364 -19.3949 21.1871 
667 3 5.91561 -18.6879 22.3159 
122 2 7.09796 -15.9962 23.2105 
203 2 5.39516 -15.5408 21.4817 
177 1 3.9748 -15.6844 23.1723 
100 1 7.10297 -15.8224 24.2437 
651 1 1.88144 -16.1054 19.057 
646 1 2.5006 -17.0069 19.9228 
682 2 3.45376 -19.0589 21.5694 
676 2 2.16257 -16.202 17.9758 
661 1 4.00131 -18.9325 20.5838 
653 3 3.36531 -18.0275 19.5497 
662 1 5.34839 -18.3575 21.0069 
683 2 5.69938 -17.5443 20.3622 
202 2 4.11474 -16.7823 23.1604 
99 1 6.41275 -16.6773 25.1291 
121 2 5.88416 -17.4778 24.7092 
204 2 2.21574 -16.7342 24.8633 
179 1 2.3366 -15.7216 25.1598 
562 1 -15.061 -15.9989 24.0891 
591 2 -15.5475 -16.0182 20.9914 
588 2 -16.1098 -15.9783 24.4041 
566 1 -15.7001 -15.2612 21.7995 
583 2 -16.6761 -15.6433 22.1981 
334 2 56.575 56.8325 -39.2238 
547 2 -9.89134 53.8245 -34.6245 
521 1 -11.1851 55.3659 -35.4098 
522 1 -10.5834 54.0954 -35.4615 
532 1 -8.92253 51.7592 -35.7475 
517 1 -10.6837 53.2479 -36.5757 
519 1 -12.1777 54.9029 -37.5646 
518 1 -11.5522 53.6695 -37.6121 
545 2 -12.7307 55.2012 -38.4945 
544 2 -11.6746 53.0991 -38.5174 
524 3 -9.96398 52.043 -36.7355 
541 2 -8.85136 52.4374 -34.8799 
520 1 -12.056 55.7381 -36.4343 
546 2 -11.0024 56.1377 -34.6286 
315 1 56.2766 53.3406 -39.2419 
449 1 51.744 51.4032 31.7897 
553 2 -7.91598 51.9065 -36.1878 
470 2 52.1899 52.4201 31.9438 
457 2 50.7534 51.7383 32.1495 
523 1 -12.6119 57.1465 -36.381 
310 1 56.6444 54.6324 -38.7884 
337 2 56.6278 52.4005 -38.7301 
325 2 57.093 54.3825 -36.5942 
552 2 -12.0195 57.0686 -38.9644 
555 2 -9.95838 51.2607 -33.4689 
465 2 50.2698 53.0272 30.6756 
548 2 -13.6268 57.0084 -36.8447 
540 2 -12.8058 57.537 -35.3444 
442 1 51.0572 51.4756 29.4118 
443 1 50.3207 52.6596 29.6594 
530 1 -11.5978 57.9495 -38.4868 
331 2 56.1695 57.0463 -36.584 
306 1 57.2083 57.2845 -36.8268 
542 2 -10.9947 51.0888 -34.8037 
453 3 53.6636 51.1523 33.5607 
533 1 -8.96083 50.3265 -35.1311 
534 1 -10.2397 50.5233 -34.2526 
308 1 57.5133 54.7978 -37.5435 
450 1 52.4401 50.5385 32.8581 
445 3 51.811 50.8143 30.4095 
305 1 58.0271 56.2348 -37.2311 
440 1 50.3423 51.623 27.0736 
441 1 50.9558 50.9705 28.112 
781 2 -6.98278 -14.8214 30.151 
463 2 50.4672 51.1921 26.1266 
538 3 -7.74275 50.0192 -34.3053 
471 2 51.6724 50.2292 33.5799 
464 2 51.5008 50.0453 27.8882 
780 2 -10.6829 -14.4514 33.2036 
626 2 -5.98257 -13.1674 25.6653 
666 1 0.667544 -7.77685 25.8815 
631 2 -5.05368 -10.7613 25.7136 
688 2 0.977825 -8.85975 26.2834 
789 4 -0.8379 -7.56934 25.9549 
333 2 58.3883 54.0987 -37.6179 
793 2 -1.01439 -10.2718 25.8094 
795 2 -2.58983 -11.0093 26.3445 
811 2 -5.39716 -13.4675 27.4019 
788 1 -2.00306 -10.0668 26.1831 
195 3 -5.65734 -13.5248 28.354 
187 3 -2.78007 -13.6842 27.0121 
786 1 -1.89988 -9.18091 27.4592 
812 2 -2.18607 -11.6336 28.1075 
787 1 -2.37336 -9.71262 28.6604 
790 4 -2.67946 -11.1133 28.9135 
782 1 -2.59879 -8.76982 29.7006 
801 1 -3.01304 -9.21034 31.0929 
215 2 -4.10175 -11.6575 27.3741 
193 1 -4.00527 -11.7366 28.4975 
213 2 -4.15625 -13.2455 30.0694 
214 2 -4.77321 -11.0571 28.8986 
192 1 -4.34112 -13.1863 29.0136 
191 1 -3.15557 -13.9912 28.4064 
199 2 -2.35482 -13.9899 29.1261 
1 1 -0.895206 -12.3135 32.8109 
2 1 -1.92606 -12.9822 32.151 
28 2 -2.17024 -12.5646 31.2147 
3 1 -2.63222 -14.1206 32.5162 
805 2 -3.04832 -10.3145 31.1919 
785 1 -1.45963 -7.88341 27.2314 
804 2 -2.32159 -8.80815 31.8431 
8 3 -0.248046 -11.0708 32.4046 
802 1 -4.35931 -8.58319 31.5457 
38 2 0.274375 -8.78225 33.4347 
807 2 -4.76495 -9.11328 32.4786 
930 2 0.0369102 51.049 95.3056 
29 2 -3.28769 -14.573 31.8029 
330 2 59.9903 55.7638 -37.8753 
783 1 -2.2641 -7.41421 29.5294 
808 2 -5.06359 -8.65461 30.7219 
304 1 59.3455 56.5853 -37.5333 
935 2 0.592441 54.3474 96.0487 
928 2 -0.352575 52.8358 93.2585 
925 1 0.300227 53.0208 94.1416 
929 2 -0.386254 53.5507 94.8811 
806 2 -4.18051 -7.53181 31.8169 
184 1 -1.5982 -14.2436 26.5362 
294 2 0.624723 -14.8406 32.1655 
784 1 -1.67535 -7.00672 28.3341 
303 1 59.8378 57.8666 -37.3981 
329 2 60.9016 58.0458 -37.6414 
687 2 1.18535 -7.01507 26.513 
16 1 1.14987 -10.64 32.9864 
926 1 0.807343 51.7072 94.8476 
212 2 -3.32562 -14.9788 28.6244 
102 1 6.85384 -7.6186 25.7526 
111 2 7.81789 -7.02851 25.6839 
117 2 8.36219 -9.7371 26.2027 
116 2 9.2639 -12.0029 25.8591 
914 4 1.50685 55.0583 95.8943 
18 1 1.75246 -8.78876 31.8141 
26 2 2.81558 -8.70166 31.8329 
39 2 1.2876 -7.81243 31.4748 
17 1 1.25824 -9.1305 33.2822 
906 1 1.46473 53.9485 93.7093 
931 2 1.46408 51.9504 95.6736 
123 2 7.171 -8.08371 26.7048 
924 2 4.80369 52.4752 92.0442 
915 1 3.95975 53.9565 90.6844 
104 1 4.52684 -7.47548 26.3306 
932 2 1.39476 51.0239 94.2317 
922 2 6.06189 53.223 91.2932 
933 2 5.25174 55.552 91.655 
916 1 5.06134 52.8583 91.1043 
913 4 4.67552 56.2836 92.1945 
911 1 1.92934 55.05 94.5458 
907 1 2.10637 53.6401 92.5695 
910 1 2.93333 55.7821 93.895 
909 1 3.60497 55.4661 92.677 
908 1 3.19276 54.3133 91.9309 
912 1 3.36625 57.083 94.5877 
927 2 1.72472 52.7673 91.9687 
289 2 5.86042 -14.7675 30.8474 
264 1 5.06789 -14.5319 31.6362 
259 1 5.11695 -13.1465 31.9913 
266 3 5.92506 -12.2266 31.3152 
296 2 7.32385 -10.8203 30.1966 
275 1 6.83947 -10.085 30.8757 
274 1 5.71727 -10.7326 31.6364 
917 2 4.0946 56.9413 95.4073 
119 2 8.21114 -13.7438 26.718 
280 3 7.0194 -8.696 30.6174 
276 1 7.90234 -9.19667 31.6473 
295 2 4.78355 -10.2198 31.4284 
284 2 7.75309 -9.1026 32.6795 
297 2 8.85049 -9.65885 31.5271 
918 2 2.60725 57.6656 95.0074 
283 2 5.85508 -10.2919 32.6738 
260 1 4.22078 -12.8554 33.0315 
919 2 3.84964 57.7926 93.8569 
96 1 7.78967 -14.6169 26.2443 
25 2 2.07324 -10.9388 32.4757 
286 2 4.17477 -11.8522 33.3974 
261 1 3.53037 -13.927 33.7317 
459 2 48.0412 56.0088 26.1311 
454 2 48.1747 52.8915 25.8356 
466 2 49.1177 54.2108 28.8681 
444 1 49.7076 53.3476 28.6471 
437 1 48.7935 53.6292 26.3679 
462 2 47.9871 54.0299 26.9928 
439 1 49.6534 52.8124 27.345 
525 1 -11.7279 58.1774 -37.0728 
529 1 -10.9165 58.8473 -39.2275 
744 2 54.1047 64.8437 25.87 
528 1 -10.3808 60.0734 -38.7666 
550 2 -10.2402 61.1563 -36.9465 
527 1 -10.522 60.2332 -37.4008 
526 1 -11.2255 59.3755 -36.5737 
549 2 -11.3879 59.5789 -35.5337 
332 2 56.9878 59.3633 -36.3484 
307 1 57.7054 58.5865 -36.7124 
338 2 57.6756 61.1456 -37.3223 
809 2 -0.810566 -6.51219 25.751 
895 1 64.0232 63.9682 25.7619 
901 2 65.0152 64.2503 26.2021 
899 2 63.3904 63.4448 26.5588 
803 2 -2.39439 -6.69493 30.3865 
327 2 61.202 63.6085 -37.3481 
339 2 59.5644 62.3279 -38.5225 
323 3 58.9845 63.9236 -37.0088 
319 1 60.2924 63.4227 -36.7087 
318 1 59.1997 62.6085 -37.4938 
340 2 60.7107 62.9854 -35.7956 
317 1 58.6409 61.3301 -36.878 
326 2 58.2319 61.5132 -35.802 
798 2 0.585766 -5.1083 29.5633 
302 1 59.0355 58.9539 -37.0421 
309 3 59.6143 60.2407 -37.0592 
797 2 -1.4804 -5.09451 27.3339 
791 1 -1.19181 -5.61899 28.2382 
796 2 -1.6889 -4.88652 28.9155 
792 1 0.385568 -5.47764 28.5585 
799 2 0.812046 -4.66336 27.9736 
800 2 0.863475 -6.41824 28.4493 
407 1 2.81142 -3.5364 25.7335 
428 2 3.30547 -4.48336 26.0385 
125 2 3.73976 -6.78769 26.7144 
429 2 3.68365 -1.4493 25.9131 
103 1 5.75439 -6.55234 26.0548 
410 3 1.98004 -2.76657 26.605 
408 1 3.34929 -2.3111 26.5552 
124 2 5.88883 -6.0296 27.0197 
430 2 4.22214 -2.49227 27.1971 
598 2 -10.2066 -19.3378 25.7089 
567 3 -11.8847 -16.9527 25.7463 
581 3 -8.02757 -17.2685 26.0576 
576 1 -9.44901 -17.3538 26.4991 
577 1 -9.78513 -18.8502 26.6339 
587 2 -14.5433 -16.6851 25.9755 
769 2 -8.23565 -22.8405 29.6264 
585 2 -8.89381 -19.3646 26.9435 
554 2 -9.1613 49.6333 -36.0056 
779 2 -7.50043 -16.9935 26.8729 
768 2 -7.94657 -21.7381 31.0198 
773 2 -9.22754 -16.5674 33.4019 
451 1 52.8654 49.2268 32.1371 
770 1 -8.8324 -17.4823 32.9521 
759 4 -10.8387 -15.7174 31.3415 
472 2 52.0428 48.7837 31.5316 
597 2 -9.55514 -16.9599 27.5415 
764 2 -12.3829 -17.2283 28.1263 
473 2 52.9655 48.4256 32.8805 
762 2 -11.5151 -15.7101 28.554 
763 2 -12.7484 -16.4124 29.6365 
757 1 -11.9447 -16.6814 28.9401 
778 2 -11.5077 -18.4398 27.3326 
755 1 -10.7982 -17.5309 29.5676 
756 1 -10.3601 -17.0066 30.7956 
758 4 -10.8256 -19.1751 27.6891 
753 1 -9.43188 -19.4729 29.7465 
754 1 -10.3813 -18.7251 28.9856 
760 1 -8.78592 -20.7382 29.1526 
752 1 -8.87436 -18.9471 30.9306 
751 1 -9.3994 -17.7433 31.5145 
772 2 -8.05316 -19.4633 31.3697 
774 2 -7.78822 -17.2251 32.7376 
766 2 -9.36983 -21.0229 28.3063 
765 2 -7.8489 -20.4034 28.6726 
767 2 -9.55638 -22.2123 30.6455 
761 1 -8.60008 -21.9261 30.1859 
776 2 -8.28876 -19.6455 33.3803 
707 2 -0.231456 -18.4219 26.1406 
185 1 -0.734152 -15.1305 27.2427 
36 2 -5.16174 -15.5297 33.1068 
693 1 -4.43084 -20.835 25.7952 
207 2 -1.22738 -15.3777 28.1906 
27 2 -6.82146 -18.0899 29.5301 
40 2 -6.32632 -19.1267 28.3325 
716 2 -6.30982 -15.3504 28.1319 
692 1 -3.67914 -19.6454 25.8645 
43 2 -5.54716 -18.0939 26.3124 
186 1 0.472114 -15.6312 26.8344 
702 2 -6.39455 -21.3688 26.6752 
42 2 -4.36014 -16.9596 26.3995 
23 3 -6.59454 -16.3023 28.2111 
293 2 -0.625767 -15.8038 30.2801 
14 1 -4.59391 -16.4173 32.7238 
9 1 -3.35124 -16.8913 33.2351 
700 2 -5.36859 -20.3988 27.7085 
701 2 -4.95355 -22.0592 27.5367 
35 2 -5.96495 -16.8136 31.1845 
271 1 0.0223617 -16.4116 30.9198 
13 1 -5.08891 -17.2068 31.6585 
695 1 -5.35802 -21.2087 27.007 
19 1 -5.86956 -18.4733 29.0975 
15 3 -4.93308 -19.1227 30.0342 
20 1 -5.41283 -17.2166 28.3274 
21 1 -4.76776 -17.7474 27.0085 
696 4 -3.74433 -18.8777 27.1245 
281 3 -2.85342 -20.939 29.0386 
41 2 -4.53676 -16.7853 28.8445 
717 2 -3.37558 -20.2833 29.5464 
12 1 -4.48091 -18.3572 31.1829 
300 2 -2.79875 -18.2109 28.7802 
279 1 -2.48261 -18.7401 27.8716 
278 1 -1.83897 -20.0921 28.3097 
301 2 -1.76476 -18.036 27.368 
285 2 -0.675265 -20.4219 30.0769 
277 1 -0.669134 -19.6956 29.2582 
299 2 -1.36285 -20.6188 27.4131 
298 2 0.204065 -20.2453 28.8505 
273 3 -0.630397 -18.1984 29.4415 
11 1 -3.32476 -18.8251 31.8267 
34 2 -2.82945 -19.7771 31.531 
270 1 0.0792285 -17.7813 30.5668 
10 1 -2.73333 -18.0793 32.8547 
272 1 0.723128 -15.9139 31.9883 
269 1 0.857768 -18.6356 31.388 
292 2 0.859524 -19.7175 31.1655 
208 2 1.11262 -16.1987 27.5413 
33 2 -1.7874 -18.4294 33.236 
126 2 4.37377 -18.2478 25.6972 
113 2 5.46597 -19.2583 26.2567 
263 1 4.24273 -15.5267 32.1364 
288 2 4.304 -16.5425 31.7011 
120 2 6.97864 -15.161 28.0618 
97 1 7.02666 -15.4327 27.0073 
267 1 1.5819 -16.779 32.7251 
268 1 1.61309 -18.1639 32.4321 
196 2 2.95482 -15.769 26.046 
98 1 6.30894 -16.5566 26.5395 
101 3 5.59033 -17.3681 27.4167 
127 2 3.99165 -20.0302 27.9126 
129 2 2.83964 -18.551 29.4637 
128 2 3.58678 -17.1931 28.6766 
105 1 4.83671 -18.4619 26.658 
106 1 3.72172 -19.0646 27.4313 
109 3 2.44303 -18.5045 27.2505 
107 1 3.01868 -18.1145 28.5021 
291 2 2.29367 -18.8309 32.9149 
262 1 3.43679 -15.2228 33.2438 
4 1 -2.34103 -14.5835 33.7964 
6 1 -0.710936 -12.787 34.1128 
5 1 -1.31271 -13.9726 34.5686 
31 2 0.197567 -12.4826 34.6761 
30 2 -1.09157 -14.3645 35.5703 
936 2 3.17136 55.8267 99.0874 
37 2 1.44943 -11.1337 33.9569 
22 3 2.33652 -8.70196 34.2686 
287 2 2.94122 -13.6232 34.6039 
771 1 -8.85159 -18.8268 33.8317 
777 2 -9.89631 -19.2033 34.0256 
775 2 -8.4466 -18.7235 34.858 
24 2 -3.56567 -15.7966 35.2004 
7 1 -2.79925 -15.9463 34.3718 
32 2 -1.97125 -16.4769 34.8509 
265 1 2.59082 -16.3877 33.8066 
290 2 3.18833 -17.2788 34.0424 
282 2 2.10728 -16.2149 34.7951 
