#DETDA molecule
936 atoms
4 atom types

-1.5000000000000000e+01 5.0000000000000000e+01 xlo xhi
-1.5000000000000000e+01 5.0000000000000000e+01 ylo yhi
-1.5000000000000000e+01 5.0000000000000000e+01 zlo zhi

Masses

1 12
2 1.008
3 15.999
4 14

Atoms

1 2 0    58.600300    56.848900     8.694020 
2 2 0    57.513700    59.068300     8.298990 
3 1 0    57.750000    58.692000     9.274250 
4 2 0    56.506600    60.957700     9.273580 
5 2 0    55.958300    56.035200    13.482900 
6 1 0    55.523600    56.289600    14.455200 
7 1 0    57.611000    55.444800    15.542700 
8 1 0    56.261900    56.089700    15.643600 
9 1 0    54.169600    56.781600    14.506000 
10 2 0    55.262400    57.249600    11.924800 
11 1 0    54.306900    56.792000    11.825600 
12 1 0    57.495000    53.960400    15.070300 
13 1 0    53.558000    57.103900    15.781100 
14 2 0    57.031200    53.914000    14.082700 
15 2 0    54.365000    55.705400    11.659100 
16 2 0    53.803100    57.171700    10.930600 
17 1 0    53.425700    56.965000    13.131700 
18 2 0    52.550100    56.281100    13.052500 
19 2 0    -9.804490   -12.206700    17.048100 
20 2 0    52.850300    57.913000    13.072100 
21 4 0    52.386900    57.925500    15.959200 
22 2 0    -9.626250   -14.606200    16.840100 
23 1 0    54.225100    56.492400    16.929000 
24 3 0    -6.882800   -14.069700    16.805500 
25 2 0    56.891200    53.298800    15.758100 
26 1 0    55.671300    56.431900    16.936300 
27 1 0    58.310800    57.450400     9.497970 
28 1 0    58.324700    57.749100    11.860400 
29 2 0    58.589000    57.414200    12.906200 
30 2 0    58.282500    55.993100    14.920900 
31 2 0    58.309300    55.005500    12.919900 
32 2 0    58.174700    55.471300    16.514200 
33 2 0    58.487500    53.471200    14.988800 
34 1 0    58.605400    56.920200    10.750500 
35 3 0    59.137500    55.616700    10.832100 
36 2 0    58.913200    53.052300    11.489400 
37 2 0    61.125100    52.928400    10.324000 
38 2 0    -5.119940   -13.642600    14.851100 
39 1 0    59.195500    55.036000    12.230700 
40 2 0    59.808500    55.615900    12.997800 
41 1 0    59.710600    53.622500    12.017400 
42 1 0    61.095900    53.579300    11.283200 
43 3 0    60.892000    53.055300    12.604700 
44 2 0    61.554100    54.620100    11.040200 
45 2 0    60.108700    56.421700    15.867100 
46 1 0    -4.668020   -13.812100    15.844300 
47 1 0    -3.307840   -13.810400    15.918000 
48 1 0    -2.619510   -10.100700    14.671000 
49 3 0    -2.281060    -8.703930    14.894700 
50 1 0    -1.194520    -9.519200    14.383100 
51 1 0    -0.106530    -9.992870    15.244300 
52 2 0    -2.666260   -13.591400    15.046300 
53 2 0    -3.090400   -10.576600    13.803500 
54 2 0    -0.806400   -13.371400    16.431000 
55 2 0    -0.961660    -9.651510    13.278400 
56 1 0    60.284200    57.499600    16.096600 
57 2 0    61.293400    57.720600    15.780200 
58 2 0     0.362550    -9.060900    15.610800 
59 3 0     0.808250   -11.045300    14.631000 
60 2 0    -4.004390    -7.308530    13.659700 
61 2 0    -0.531460   -10.148600    16.282600 
62 2 0    -2.693160   -10.811400    15.492700 
63 1 0    -5.478070   -14.015400    16.980400 
64 1 0    -1.186860   -13.855500    17.337000 
65 1 0    -2.707540   -13.962100    17.191600 
66 2 0     1.034380   -10.608000    17.238000 
67 2 0    -6.575820    -6.963210    15.608800 
68 2 0    -0.658150   -14.825200    17.255300 
69 1 0     1.535910   -11.797700    15.568300 
70 2 0     2.364530   -13.110000    14.059300 
71 1 0     2.363030   -12.859200    15.160800 
72 1 0     1.636100   -11.472500    16.932000 
73 1 0     3.160840   -13.630700    16.024500 
74 2 0     3.608290    -7.369160    14.837600 
75 1 0     3.394720    -7.821330    15.832300 
76 2 0     5.048340    -9.192970    15.927800 
77 2 0     2.631020    -8.602560    15.710900 
78 1 0     4.612640    -8.400810    16.573600 
79 2 0     2.815630    -7.098190    16.450200 
80 1 0     5.722900    -7.412530    16.837000 
81 2 0     3.780750   -14.450700    15.639400 
82 1 0     3.149160   -13.298000    17.396900 
83 2 0    47.813500    56.569600    14.515600 
84 2 0    49.262800    57.005900    17.054300 
85 1 0    48.827300    57.949100    17.444000 
86 2 0    49.373400    57.190800    14.922600 
87 3 0    49.736400    57.460900    12.469300 
88 2 0    47.531100    58.023700    12.609000 
89 1 0    48.526200    57.890700    13.108300 
90 1 0    48.370700    57.545700    14.547200 
91 2 0    57.527300    61.673100    10.459900 
92 2 0    -8.824530    -4.548480    16.321400 
93 2 0    -7.817560    -5.706900    16.853700 
94 1 0    56.830700    60.843500    10.320200 
95 2 0    52.248800    58.332200    15.008100 
96 1 0    57.824300    59.054300    11.748400 
97 1 0    57.502900    59.464300    10.478100 
98 2 0    54.509700    59.349400    10.306300 
99 2 0    52.895200    59.209600    12.024100 
100 1 0    54.572600    60.123300    11.142700 
101 1 0    53.613200    60.073400    12.101700 
102 1 0    -8.053590    -5.213790    15.924300 
103 2 0    -8.566540    -5.955330    15.267800 
104 2 0    56.458800    62.634400    12.599700 
105 1 0    55.676000    61.035600    11.295600 
106 2 0    -8.934170    -3.084620    15.780100 
107 4 0    -8.157760    -2.429810    15.449000 
108 1 0    55.655000    61.904900    12.397200 
109 1 0    54.673300    61.759100    13.363100 
110 1 0    53.588100    60.832200    13.245500 
111 2 0    54.757400    62.407300    14.252100 
112 3 0    52.608200    60.565500    14.210900 
113 2 0    53.744800    61.290500    16.035500 
114 1 0    52.730400    61.238900    15.530300 
115 2 0    52.508200    62.311400    15.633200 
116 2 0    56.069400    64.467700    16.043400 
117 1 0    56.843900    63.784000    16.415000 
118 2 0    53.672300    59.423100    16.881200 
119 1 0    52.606800    59.183500    16.798200 
120 1 0    51.810700    60.416100    16.435500 
121 2 0    50.921800    60.123800    15.870400 
122 2 0    57.681900    59.655200    12.673500 
123 2 0    57.797900    64.337100    16.358300 
124 1 0    -6.917240    -3.082920    15.135100 
125 2 0    50.210000    59.397900    13.577600 
126 2 0    -6.945230    -0.851120    13.857600 
127 2 0    65.618900    58.185700    16.580600 
128 1 0    -6.796980    -4.479790    15.341900 
129 2 0    -2.479310    -6.774660    12.893400 
130 4 0    -5.663420    -6.738890    15.166900 
131 1 0    -3.417200    -6.392810    13.260500 
132 2 0    -5.420580    -1.021240    13.150400 
133 1 0    -5.884250    -1.042200    14.125500 
134 1 0    -5.772980    -2.442410    14.587300 
135 2 0    -4.642230     0.826910    14.242400 
136 2 0    -6.095370     0.938850    15.128700 
137 2 0    -4.747360    -0.104380    15.701800 
138 1 0    -5.285980     0.211770    14.853700 
139 2 0    -2.495270    -4.395410    13.802100 
140 2 0    -4.013430    -6.178050    12.394200 
141 1 0    -3.202860    -5.142380    14.283500 
142 2 0    -2.516260    -5.476390    15.126400 
143 1 0    -5.680590    -5.304330    15.097300 
144 1 0    -4.554930    -4.533790    14.645200 
145 1 0    -4.606940    -3.162230    14.354600 
146 2 0    -3.736490    -2.662100    14.035700 
147 2 0    64.893700    60.496400    16.069100 
148 3 0     0.505470    -1.419730    14.779200 
149 1 0    -0.199460    -0.169420    15.289500 
150 2 0    64.592000    62.921400    16.922600 
151 1 0    65.072000    60.239600    17.136900 
152 1 0    65.462400    58.922100    17.437600 
153 2 0    -2.064860    -1.147130    14.990100 
154 2 0    -2.729630    -0.246060    12.760800 
155 1 0    -2.013460     0.408510    13.319400 
156 2 0    -1.299740     0.623810    12.540900 
157 2 0     0.293630     0.790100    15.088200 
158 1 0    -1.538640    -0.217690    14.701000 
159 3 0    -2.224980     1.037380    14.583900 
160 2 0    -0.225570    -0.019170    16.379000 
161 2 0     5.759610    -6.702000    14.810000 
162 2 0     2.004120    -3.588970    14.256400 
163 1 0     6.253570    -6.662820    15.782500 
164 2 0     6.234360    -3.652450    14.263400 
165 1 0     2.447500    -0.804330    16.246500 
166 1 0     4.287290    -2.375510    16.504400 
167 2 0     5.746510    -3.838120    16.724400 
168 2 0     6.423220    -2.246980    17.065100 
169 1 0     7.314910    -3.678280    14.582300 
170 2 0     7.518070    -3.095780    15.482600 
171 1 0     7.374240    -5.864950    15.915000 
172 2 0     7.788200    -3.039730    13.824200 
173 1 0     7.891030    -5.173300    14.636400 
174 2 0     8.986600    -5.140620    14.631900 
175 2 0     7.661570    -5.761770    13.724100 
176 1 0     3.710140    -3.133670    15.462800 
177 2 0     4.126860    -4.095560    15.199500 
178 1 0     8.007770    -5.672850    17.128000 
179 1 0     1.756650    -1.648850    15.297800 
180 1 0     2.452980    -2.826370    14.962500 
181 4 0     9.080970    -4.707340    17.347200 
182 1 0     5.513300    -2.881070    17.212700 
183 1 0     3.582520    -1.223680    16.933000 
184 2 0     1.909780     0.147160    16.493200 
185 1 0    10.482100    -5.180500    17.237600 
186 2 0    10.885200    -5.439890    16.201700 
187 1 0    49.754400    58.874200    12.708600 
188 2 0    49.511800    59.701300    12.022700 
189 3 0    47.657900    58.671500    15.314600 
190 1 0    47.901000    58.703400    16.693900 
191 2 0    46.616800    60.389700    16.769300 
192 1 0    47.282700    59.761700    17.365400 
193 1 0    -9.077020   -14.203700    17.742800 
194 1 0    -7.704770   -14.751200    17.803600 
195 2 0    57.581400    56.907700    18.045300 
196 4 0    56.420900    56.689300    18.084600 
197 2 0    53.688700    55.176900    18.648100 
198 1 0    53.218900    55.925300    17.975700 
199 1 0    56.120300    55.299800   -41.418500 
200 3 0    56.427800    56.737000   -41.321300 
201 1 0    55.436500    54.893200   -42.724600 
202 1 0    56.040500    53.745900   -43.619400 
203 2 0    55.156700    55.823200   -43.265400 
204 3 0    54.832600    53.577900   -42.886500 
205 2 0    52.740900    56.616200    18.653900 
206 2 0    56.162400    54.079000   -44.614200 
207 2 0    57.030600    53.458400   -43.280300 
208 2 0    -8.304140   -12.008200    17.755400 
209 2 0    55.244400    56.383700    19.897900 
210 1 0    55.808700    57.151600    19.394800 
211 1 0    56.892100    57.151500   -40.029700 
212 2 0    55.565100    54.744500   -40.619000 
213 2 0    52.488600    55.212100    17.564300 
214 2 0    51.825700    57.284400    23.078200 
215 2 0    56.975200    54.613200   -41.236600 
216 2 0    -9.255510   -13.106100    23.562900 
217 2 0    -7.534970   -13.293500    23.913500 
218 1 0    51.587000    57.978200    22.300000 
219 1 0    -8.460340   -13.899400    23.823800 
220 2 0    56.660000    57.254200    20.013200 
221 1 0    -9.213300   -12.641100    17.859500 
222 2 0    -7.381940   -14.883300    18.875500 
223 1 0    -8.787510   -14.346000    25.254000 
224 2 0    58.098200    53.448800    19.092800 
225 3 0    53.888500    57.999000    21.756900 
226 2 0    -9.931620   -14.411800    21.656200 
227 3 0    -9.690070   -13.526200    18.878500 
228 1 0    60.072300    57.811500    17.585600 
229 2 0    58.382900    51.843200    20.993000 
230 2 0    -5.968950   -11.190700    24.503100 
231 1 0    59.148900    52.583700    20.764100 
232 2 0    59.610700    51.312300    23.065400 
233 2 0    61.388600    56.221200    17.864500 
234 2 0    -5.967260    -9.588980    22.687100 
235 1 0    58.973900    53.518400    19.748000 
236 3 0    59.455500    55.624000    18.671600 
237 1 0    60.536500    56.575300    18.428400 
238 1 0    -0.655420   -13.150900    18.550000 
239 2 0    -1.744710   -11.355800    18.317600 
240 1 0    -1.014690   -11.844100    18.924000 
241 2 0    61.185500    56.875500    19.271300 
242 2 0    61.823600    55.288600    20.085900 
243 1 0    61.056900    54.584300    20.279300 
244 1 0    61.222900    53.781000    21.364500 
245 1 0    59.843300    54.572800    19.536400 
246 1 0    -5.282720    -9.414640    23.536200 
247 1 0    -5.325450   -10.325600    24.591700 
248 4 0     0.229050   -10.862700    25.382500 
249 1 0    60.302300    52.733100    21.590900 
250 2 0    62.087100    53.816500    22.043800 
251 2 0    60.982000    52.235800    23.675100 
252 1 0    60.566500    51.738400    22.732800 
253 1 0     0.106790    -6.925270    23.358700 
254 2 0     0.069510   -10.573600    24.347400 
255 2 0     0.188990    -6.911180    22.345000 
256 1 0     0.537210    -8.300710    25.518100 
257 2 0    -0.970250   -10.244400    20.353600 
258 1 0    -0.583880   -11.220500    20.079700 
259 2 0    63.307100    51.600400    23.109700 
260 1 0    61.526200    50.624500    22.255100 
261 1 0    62.911800    50.742200    22.550000 
262 1 0     0.345440   -11.806600    20.950300 
263 1 0     0.778580    -8.173190    24.022100 
264 1 0     0.355660   -13.741100    19.373700 
265 1 0     0.788260   -13.075400    20.488500 
266 2 0    -5.935410    -8.026100    21.216000 
267 1 0    -4.468370    -8.277240    23.579800 
268 1 0    -3.601850    -8.238970    24.688700 
269 2 0     0.459980    -9.042330    23.478600 
270 3 0     0.741720   -11.209300    22.150400 
271 2 0     1.222750   -12.829300    25.260400 
272 2 0    -2.988890    -7.353460    24.753200 
273 2 0    -6.592260    -6.921720    22.178700 
274 1 0    -4.841610   -14.267400    18.201600 
275 2 0    66.241300    55.839300    20.346200 
276 3 0    -4.457920    -7.195700    22.685400 
277 1 0    -5.558720    -7.125880    21.727100 
278 2 0     0.726280   -14.788500    19.172100 
279 1 0    -3.462980   -14.229100    18.368400 
280 2 0    -5.438530   -14.445600    19.090100 
281 2 0    -2.939960   -14.395100    19.348800 
282 2 0     4.847420   -14.620700    17.661800 
283 2 0     4.295910    -8.954670    17.506600 
284 3 0    66.416200    57.217400    18.681100 
285 1 0     4.022180   -14.178000    18.317800 
286 2 0     1.854910    -8.205020    23.804400 
287 2 0    66.719800    57.286100    20.945000 
288 2 0     3.452970   -14.969800    18.788700 
289 1 0    66.827400    56.707900    20.019400 
290 1 0     6.271290    -7.219940    18.165500 
291 2 0     5.340010   -11.848900    17.913100 
292 2 0     1.546440   -13.607200    21.059200 
293 1 0     1.472000   -11.727400    25.323000 
294 2 0     1.389730   -12.952100    23.324100 
295 1 0     1.724290   -12.012100    22.936700 
296 1 0     2.394530   -11.318000    24.125600 
297 1 0     2.405530   -12.193700    17.825700 
298 2 0    68.860600    58.031600    18.535400 
299 2 0     2.217280   -10.280200    23.864800 
300 2 0     2.585360   -12.483100    22.389100 
301 2 0     2.432120   -11.860900    18.865200 
302 1 0     4.668550   -13.311400    19.392500 
303 1 0     5.351040   -12.137900    18.983600 
304 1 0     4.579900   -13.679400    20.731300 
305 1 0     5.297100   -12.927800    21.679400 
306 1 0     5.923640   -11.390700    19.954700 
307 1 0     6.004030   -11.756500    21.314100 
308 2 0     5.262690   -13.193300    22.772800 
309 3 0     6.800900   -10.991000    22.212500 
310 1 0     7.391520    -9.694920    21.674600 
311 2 0     6.385920   -10.435500    19.577800 
312 2 0     8.469400    -9.862120    21.568700 
313 2 0     7.201830    -9.356600    20.675400 
314 2 0     4.253360   -11.367900    23.471400 
315 2 0    68.547500    55.722800    19.147500 
316 1 0     7.087510    -8.534940    22.617200 
317 3 0     6.432160    -7.338040    21.895000 
318 1 0    68.341100    56.427700    19.995800 
319 2 0     6.140010    -7.253780    20.207500 
320 1 0    69.134200    57.672500    19.523000 
321 4 0     5.634640    -7.635780    19.349900 
322 3 0    68.747100    55.943200    21.345800 
323 3 0     3.850960   -11.735300    24.277600 
324 2 0     8.034710    -8.408890    23.211000 
325 2 0     5.231660    -9.540790    23.224400 
326 2 0     6.830530    54.303900    88.937500 
327 1 0     6.072110    -8.974530    23.706300 
328 2 0     4.686590    -8.829300    21.253900 
329 4 0     6.744530    55.090600    89.682800 
330 2 0     5.682370    -8.054990    24.216400 
331 2 0     7.208870    52.204900    89.155300 
332 1 0     7.671580    52.352700    90.098900 
333 2 0     7.844740    51.326200    90.464700 
334 2 0     8.259090    -7.481320    19.886200 
335 2 0     3.939110   -14.475900    21.042000 
336 2 0     2.756200   -14.626400    23.827200 
337 1 0     9.068420    53.012400    89.946800 
338 2 0     8.896670    54.111000    90.110600 
339 2 0     4.445110    56.287900    90.153600 
340 2 0     9.506660    52.800100    88.969600 
341 2 0    49.557000    57.824200    22.741300 
342 2 0    49.752600    57.577600    19.382800 
343 1 0    50.296500    58.382900    22.192500 
344 1 0    56.866000    58.518300   -39.750400 
345 2 0    56.425700    59.210400   -40.505700 
346 1 0    56.477500    63.454700    17.884800 
347 2 0    57.962200    61.919400    17.768500 
348 3 0    55.076500    62.845000    17.936600 
349 2 0    56.601100    64.477900    18.397900 
350 2 0    -9.616750    -3.081040    18.158000 
351 1 0    57.715000    62.741500    18.451800 
352 2 0    56.746700    59.219700    18.932500 
353 3 0    55.815500    59.589700    18.821400 
354 1 0    55.040000    58.513000    19.486400 
355 2 0    56.035700    58.572100    21.410700 
356 1 0    52.607400    58.543600    21.543700 
357 1 0    54.973400    58.714300    21.029700 
358 2 0    53.947000    58.393600    19.244300 
359 2 0    52.441800    58.900700    17.847600 
360 3 0    51.419500    61.177500    17.664800 
361 2 0    52.306900    61.674700    17.863000 
362 1 0    52.175500    59.552600    20.665900 
363 1 0    50.868100    59.933900    20.453900 
364 2 0    52.919200    60.025700    19.978200 
365 1 0    53.951800    62.587900    22.039700 
366 1 0    55.213400    62.108800    21.322200 
367 2 0    56.017000    62.877700    21.193600 
368 2 0    54.869700    61.873000    20.322000 
369 2 0    55.657400    61.199800    21.911500 
370 2 0    55.032100    59.830500    21.060100 
371 1 0    53.883000    62.413600    23.475100 
372 1 0    52.525700    61.956200    23.845100 
373 2 0    50.587100    60.717100    19.696600 
374 2 0    52.157000    63.235300    19.252700 
375 1 0    52.860000    63.041500    21.166900 
376 4 0    53.009300    63.462800    19.813300 
377 2 0    53.912500    63.179500    19.451200 
378 2 0    55.737300    64.295200    23.033700 
379 1 0    51.620800    62.986600    21.765100 
380 1 0    52.329300    60.924300    24.976700 
381 1 0    51.401300    62.408500    23.099000 
382 2 0    50.405100    62.108700    23.463900 
383 1 0    50.353800    63.506700    21.092400 
384 2 0    53.412300    59.174200    23.915900 
385 2 0    51.273500    60.474900    25.012200 
386 1 0    56.092600    63.643700    23.932900 
387 1 0    53.436200    59.760300    24.858800 
388 4 0    54.881400    62.735200    24.372600 
389 2 0    57.450700    62.079300    19.302700 
390 2 0    54.444100    60.143900    25.020900 
391 2 0    56.247400    64.314600    24.764000 
392 1 0    57.345100    62.910300    23.621700 
393 3 0    57.249500    61.415200    23.519900 
394 2 0    57.513800    62.895300    22.550500 
395 2 0    51.115900    64.691600    19.464700 
396 1 0    50.353200    64.840700    20.295900 
397 2 0    50.657800    65.698300    20.850200 
398 2 0    60.807600    58.584700    17.859200 
399 2 0    62.267100    60.814100    17.988500 
400 2 0    59.939000    61.380100    18.178400 
401 2 0    -1.011580    -6.862990    23.560600 
402 2 0    -6.523210    -6.634570    18.781300 
403 3 0    58.556700    58.158100    17.789300 
404 2 0    58.338200    64.633800    24.422500 
405 2 0     0.590730    -5.991950    23.715200 
406 1 0    65.775900    58.467100    18.684700 
407 2 0    58.165800    61.201400    23.802700 
408 3 0    58.754300    63.809700    18.725100 
409 2 0    65.876000    59.257100    20.799600 
410 1 0    64.402800    62.617600    17.987600 
411 1 0    64.913300    61.190100    18.157500 
412 2 0    63.137100    64.914400    18.895600 
413 1 0    62.467200    64.108000    18.760300 
414 1 0    62.947400    62.845700    18.310900 
415 1 0    61.981400    61.810300    18.178600 
416 1 0    60.656700    62.185600    18.348500 
417 2 0    65.030000    63.419800    18.449900 
418 1 0    61.122900    64.359600    18.923300 
419 2 0    60.872600    65.323600    19.283800 
420 1 0    60.111600    63.425300    18.730900 
421 2 0    -4.247920    -5.987890    20.442700 
422 3 0    -6.370930    -5.236380    20.271800 
423 2 0    -5.951350    -4.657900    22.393100 
424 2 0    65.129700    61.448600    20.283000 
425 1 0    65.260300    60.756500    19.477900 
426 1 0    -5.269180    -6.003990    20.757000 
427 1 0    -5.652460    -4.613090    21.362300 
428 2 0    -4.826740    -3.892410    21.240300 
429 1 0    -0.063460    -3.532900    23.480300 
430 1 0    -1.309560    -4.102310    23.123200 
431 1 0    -2.353820    -4.346610    24.007900 
432 1 0    65.666000    59.457400    19.715000 
433 2 0    -3.300830    -4.710080    23.636900 
434 3 0     0.797480    -3.082910    22.456100 
435 2 0    -1.425930    -4.415280    22.065400 
436 1 0    58.544300    63.604700    24.318000 
437 3 0    59.775100    63.174600    23.616200 
438 1 0    62.225100    63.748700    23.480300 
439 2 0    62.385100    63.052300    22.671700 
440 1 0    60.952300    63.936000    24.005700 
441 2 0    64.359100    64.206800    23.529000 
442 1 0    63.363000    64.345100    24.082700 
443 2 0     1.059800    -2.820590    25.219500 
444 1 0     0.078430    -3.278140    24.830900 
445 1 0    60.813200    64.869500    25.063200 
446 1 0    63.323500    65.104500    25.272000 
447 2 0    65.192300    66.008900    25.157100 
448 3 0     1.125540     0.123290    21.240500 
449 2 0    58.475600    63.421000    25.458700 
450 1 0    -2.173310    -4.059330    25.392800 
451 2 0    59.827200    65.290500    25.437500 
452 1 0    61.951700    65.391500    25.605500 
453 2 0    69.095300    58.464100    20.257900 
454 2 0     1.677570    -1.270500    23.392000 
455 1 0     1.772230    -2.001990    22.597900 
456 1 0     7.452040    -6.482910    18.190800 
457 2 0     6.548250    58.376300    87.541300 
458 1 0     8.315000    -6.503520    19.431400 
459 2 0     2.806820    -2.227850    22.801600 
460 1 0     1.715790    -1.195290    21.318900 
461 2 0     1.832640    -1.825810    20.450400 
462 2 0     3.933440    -0.564380    17.758300 
463 2 0     7.930430    -5.793960    20.174500 
464 2 0     3.307090    -3.594250    18.692100 
465 1 0     5.392710    -3.147780    18.705700 
466 1 0     4.183320    -3.505240    19.303000 
467 2 0     7.517950    -2.900210    19.173200 
468 2 0     3.612340    -5.927050    22.331100 
469 2 0     2.995830    -4.792970    23.112700 
470 2 0     3.162470    -4.303430    20.981500 
471 1 0     4.053610    -5.242120    23.092100 
472 1 0     6.537940    -3.090070    19.552200 
473 1 0     6.438810    -3.490400    20.864900 
474 3 0     5.298240    -4.464170    22.759100 
475 1 0     4.124840    -4.019600    20.581000 
476 1 0     5.245750    -4.027390    21.432000 
477 2 0     7.311070    -3.581630    21.432400 
478 1 0     4.218530    -5.939130    24.433200 
479 2 0     5.259350    -6.204880    24.612400 
480 1 0     2.579550     0.059670    21.111700 
481 2 0     3.148650     0.023320    20.147200 
482 2 0     3.274580     0.320670    21.938500 
483 2 0     8.985140    -4.497260    18.370800 
484 3 0     3.245190    -5.958870    25.250400 
485 2 0    10.725800    -6.106520    17.781000 
486 2 0    11.061600    -4.355790    17.677600 
487 2 0     9.437720    -6.407560    19.268200 
488 1 0    49.023200    58.161300    18.804800 
489 2 0    47.855400    58.644300    21.529400 
490 1 0    49.842000    59.342600    21.215500 
491 2 0    49.850100    62.758600    20.384800 
492 1 0    48.345600    59.391100    20.982300 
493 2 0    49.717200    63.634100    21.984800 
494 2 0    49.367500    65.066000    19.901000 
495 2 0    47.870600    60.353300    21.272300 
496 1 0    48.269800    59.173000    19.424300 
497 2 0    46.847200    60.820500    19.251100 
498 1 0    47.404500    59.998800    18.710700 
499 2 0    -6.288150   -23.476500    24.215100 
500 2 0    -5.483990   -24.227200    22.335500 
501 1 0    -4.080750   -23.254300    24.261500 
502 1 0    -5.392900   -24.048100    24.552400 
503 4 0    -4.557390   -23.884700    21.936400 
504 1 0    -3.716340   -23.291800    22.911200 
505 2 0    -4.182620   -23.900200    20.999100 
506 2 0    -5.345590   -25.063700    24.099500 
507 2 0    -1.740680   -23.921400    20.849900 
508 1 0    -8.315300   -15.078600    22.914600 
509 2 0    -7.805600   -15.845500    17.661200 
510 1 0    -9.120490   -15.198000    21.773300 
511 2 0    -9.509200   -16.426400    19.973800 
512 1 0    -8.883440   -16.265200    20.876500 
513 1 0    -7.184080   -15.920700    23.023900 
514 1 0    -7.760520   -17.095100    20.941800 
515 2 0    -9.534160   -22.226300    25.383000 
516 2 0    -8.789130   -16.495400    24.746600 
517 1 0    -6.919800   -16.895800    22.079100 
518 3 0    -7.462790   -18.038900    19.889100 
519 2 0    -8.431750   -20.001100    25.607500 
520 1 0    -8.921160   -15.748700    25.508000 
521 1 0    60.955900    49.614800    21.467500 
522 2 0    59.883600    49.590300    21.181300 
523 1 0    -3.337700   -22.770700    25.379500 
524 2 0    -5.115460   -20.902200    20.587400 
525 2 0    -5.798700   -21.833200    19.207300 
526 1 0    -5.256170   -20.895100    19.470700 
527 2 0    64.744600    49.700400    22.385200 
528 1 0    63.672300    49.706600    22.123600 
529 2 0    -6.557850   -15.855400    23.884900 
530 1 0    -1.883260   -21.832400    20.156300 
531 2 0    -2.829170   -21.821700    19.576700 
532 2 0    -1.848590   -20.758600    20.636600 
533 2 0    -0.489240   -22.062400    23.508600 
534 2 0    -1.091570   -21.789400    19.413300 
535 1 0    -1.685930   -22.864000    21.328900 
536 3 0    -4.435940   -20.111200    18.515900 
537 2 0    63.294300    47.687800    18.688400 
538 3 0    64.147600    47.808400    20.758500 
539 2 0    -6.534740   -19.692200    18.053100 
540 1 0    -5.722270   -19.553200    18.774000 
541 2 0    -5.314140   -17.710200    19.843700 
542 1 0    -6.058830   -18.484100    19.885400 
543 2 0    -5.973490   -17.386300    22.221200 
544 2 0    -5.524940   -18.780700    20.768300 
545 2 0    -4.053420   -20.272700    23.154100 
546 1 0    -3.321700   -19.781200    23.813200 
547 2 0    -2.491950   -19.411900    23.200200 
548 1 0    -3.980050   -18.777600    24.895600 
549 1 0    61.816100    48.644500    20.967800 
550 2 0    61.388100    47.837500    20.357300 
551 1 0    63.187200    48.652900    21.335000 
552 2 0    -5.080990   -18.745600    24.791700 
553 2 0    63.077300    46.343800    19.547000 
554 2 0    -3.253520   -17.065100    23.756300 
555 2 0    -0.628960   -22.856100    21.623200 
556 3 0    -3.251580   -19.942300    25.244300 
557 1 0    -2.397650   -22.811800    22.605600 
558 1 0    -1.526920   -22.389900    23.689000 
559 1 0    63.829100    47.100000    19.475400 
560 2 0    -0.387760   -19.097200    24.448500 
561 1 0    -1.967630   -22.457300    25.007600 
562 1 0     0.631960   -18.794900    24.756900 
563 3 0     0.875350   -17.350900    25.097100 
564 1 0    65.086800    46.458500    18.951900 
565 2 0    65.252100    45.038000    20.728300 
566 3 0    64.943300    45.087300    18.487900 
567 2 0     0.794730   -19.571600    25.538000 
568 1 0    65.708600    45.247800    19.707300 
569 2 0    65.859400    47.207700    18.670800 
570 2 0    -2.328590   -15.051100    25.381900 
571 1 0    -3.476550   -17.376800    24.803200 
572 3 0    -4.684360   -16.646400    25.532700 
573 2 0    -2.484150   -17.385400    25.224700 
574 2 0     1.613200   -18.207500    22.919200 
575 1 0     1.650700   -19.045200    23.641100 
576 2 0    66.793500    45.234000    19.760300 
577 2 0     2.821420   -16.291500    24.179000 
578 1 0     3.447300   -15.381300    24.171500 
579 2 0     3.843380   -18.648100    23.751100 
580 3 0     4.909630   -15.312900    24.098400 
581 1 0     4.389030   -15.038900    25.404700 
582 3 0     2.280420   -20.301000    23.349300 
583 1 0     3.106110   -19.364700    24.087900 
584 2 0     3.238210   -19.312600    25.193800 
585 1 0    57.439100    56.280100   -39.043500 
586 2 0    57.607700    55.223400   -39.200400 
587 2 0   -10.763900    56.491700   -35.325300 
588 1 0    58.030800    56.835800   -37.947600 
589 3 0    -9.403380   -10.807100    29.319700 
590 2 0    -8.388010    -8.970220    30.133400 
591 1 0    -8.347050    -9.850070    29.496700 
592 1 0    -8.394000   -11.277900    30.214700 
593 2 0    -8.389300   -11.134000    31.371900 
594 1 0   -11.662900    53.729400   -32.968500 
595 2 0   -13.233400    54.919200   -33.819200 
596 2 0   -12.112600    52.798500   -33.319200 
597 1 0   -10.677300    56.126300   -31.835400 
598 1 0   -10.114400    54.845100   -31.610700 
599 1 0   -11.797000    56.138700   -32.676400 
600 1 0   -10.515000    53.618900   -32.159000 
601 1 0   -12.288900    54.924300   -33.237700 
602 3 0    -9.951050    52.338600   -31.950300 
603 2 0    -7.762210    52.973700   -31.568100 
604 1 0    -8.628430    52.312600   -31.273500 
605 2 0    -7.589180   -12.369000    28.632700 
606 1 0    -7.299930   -12.161500    29.708200 
607 2 0    -8.438730    50.322000   -32.151300 
608 2 0    -9.183740   -12.413900    26.113400 
609 2 0    -7.507950   -13.192600    30.128200 
610 1 0    -9.139920   -13.490900    26.324800 
611 2 0   -10.212200    56.996400   -31.441200 
612 1 0   -12.589000    57.369300   -33.168900 
613 2 0   -13.596200    57.094100   -33.500700 
614 2 0    57.064200    57.824400   -32.099600 
615 1 0    57.757800    57.568100   -32.851500 
616 2 0    -9.755950   -13.197800    28.454200 
617 1 0   -10.958500    57.573200   -35.221800 
618 1 0    -9.533870   -13.938200    27.569800 
619 2 0   -10.946500   -14.896900    32.746600 
620 2 0   -11.153900   -14.202100    29.753400 
621 2 0    -9.964330   -14.503700    30.655400 
622 2 0    -7.417240    -9.654180    28.854000 