#DETDA molecule
936 atoms
4 atom types

-1.5000000000000000e+01 5.0000000000000000e+01 xlo xhi
-1.5000000000000000e+01 5.0000000000000000e+01 ylo yhi
-1.5000000000000000e+01 5.0000000000000000e+01 zlo zhi

Masses

1 12
2 1.008
3 15.999
4 14

Atoms

1 3 0     4.942620     8.513810    -2.717520 
2 2 0     3.860510     6.307590     0.395880 
3 2 0     3.714040     8.323410    -0.754310 
4 2 0     5.694860     6.440750    -0.644060 
5 1 0     5.779960     7.539390    -0.463430 
6 1 0     4.703930     8.247610    -1.282860 
7 3 0     5.947500     7.974340     0.966690 
8 2 0     8.495150     8.827330     1.123830 
9 4 0     9.251930     8.673740     0.430140 
10 2 0     9.136700     8.417240    -0.570140 
11 2 0     6.702730     7.673670    -1.097980 
12 2 0    12.204200     8.015960    -2.079940 
13 2 0    10.462600     7.754820    -1.976580 
14 1 0    10.504100     8.328980     0.935120 
15 1 0    11.311900     8.210560    -1.464230 
16 2 0    11.168200     9.291460    -1.572690 
17 2 0    13.541700     5.212090    -0.093710 
18 4 0    13.125400     6.067220    -0.578010 
19 1 0    12.402500     6.797520     0.386750 
20 1 0    11.443700     7.775690     0.006540 
21 2 0    12.635800     6.139730    -1.488960 
22 2 0    24.864700     8.543300    -0.766960 
23 2 0    30.362700     3.811650     0.186310 
24 2 0    29.821900     4.070360    -1.897490 
25 1 0    30.178300     4.867150    -0.049770 
26 1 0    25.957900     8.350250    -0.866280 
27 1 0    26.399700     7.047150    -0.949850 
28 2 0    25.627800     6.271200    -0.861780 
29 1 0    27.748600     6.670240    -1.079240 
30 1 0    28.261200     9.064930    -1.222840 
31 1 0    28.651200     7.744130    -1.222500 
32 3 0    28.074800     5.310570    -1.178950 
33 2 0    30.161700     5.653080    -1.992190 
34 1 0    29.533500     5.013750    -1.373790 
35 2 0    29.700600     7.518580    -1.386230 
36 3 0    30.977200     5.987970     0.370700 
37 2 0     4.812500    10.528600    -1.631910 
38 1 0     5.342510     9.579380    -1.848500 
39 2 0     6.362890     9.735370    -1.508840 
40 2 0    25.564100    11.012300    -0.585200 
41 2 0    26.339600    11.179800    -2.119780 
42 1 0    26.553200    10.862600    -1.064730 
43 1 0    26.913700     9.386110    -0.984170 
44 2 0    28.961600     9.870190    -1.400600 
45 2 0    29.285300    11.711900    -1.754990 
46 2 0    26.128200    12.253000     1.208210 
47 1 0    27.119200    12.427200     0.795110 
48 1 0    27.551000    11.806400    -0.384990 
49 1 0    29.184600    13.699300     1.040630 
50 1 0    28.850900    12.152100    -0.850980 
51 1 0    29.556200    13.106300    -0.156320 
52 2 0    30.570600    13.348300    -0.570290 
53 2 0    32.227300    13.001400     0.887990 
54 2 0    31.163700    11.554500     0.893520 
55 2 0     7.902240    25.512100     0.191030 
56 2 0    33.151000    19.175500    -3.707750 
57 2 0    33.225000    21.517600     1.041280 
58 2 0    33.678400    21.232600    -1.338060 
59 1 0    34.902700    19.224900    -4.781370 
60 1 0    36.058300    20.255500    -4.978680 
61 3 0    35.133800    19.903000    -6.019950 
62 2 0    35.260700    18.161300    -4.631450 
63 1 0    34.122600    19.672600    -3.579550 
64 2 0    33.818100    20.709100    -3.689990 
65 2 0    36.039200    21.144700    -4.410950 
66 3 0    35.092500    19.191100    -2.467450 
67 2 0    37.050700    19.842100    -4.803290 
68 1 0    35.520600    18.650200    -0.155690 
69 2 0    36.182100    17.830700    -0.526030 
70 1 0    34.891100    19.465200    -1.123950 
71 1 0    35.373300    18.848500     1.203970 
72 1 0    33.915300    20.725100     0.717720 
73 1 0    34.116400    20.548400    -0.613870 
74 2 0     5.939780    27.839500    -0.118670 
75 1 0     5.999100    26.756500    -0.057790 
76 2 0     5.997420    26.416200    -1.094410 
77 3 0     5.875580    25.934400     1.113080 
78 1 0     7.239190    26.190400     0.747080 
79 2 0     9.123500    27.155500     1.028980 
80 3 0     7.467490    28.647400     1.104530 
81 2 0     6.933440    31.351600     0.893690 
82 2 0     8.634340    33.153900     1.184460 
83 2 0    11.264000    33.165900     0.572760 
84 2 0    11.044300    35.214700     0.341480 
85 2 0    10.998900    37.522000     1.150070 
86 2 0    12.249400    41.429000     0.817370 
87 2 0     0.668970     8.750950     4.135850 
88 1 0     1.065680     8.098050     4.937530 
89 1 0     0.883400     8.367890     6.310090 
90 2 0     2.216200     4.103790     4.397120 
91 1 0     1.732880     7.002090     4.485520 
92 2 0     1.812370     6.906510     3.412430 
93 1 0     4.196910     6.261500     1.441410 
94 1 0     3.363150     5.550100     2.312480 
95 2 0     2.448610     5.078870     1.911670 
96 1 0     3.846630     5.403200     3.631550 
97 1 0     5.331150     7.008560     1.810060 
98 1 0     5.076780     5.973830     3.964630 
99 1 0     5.770540     6.814970     3.113220 
100 2 0     6.665250     7.322640     3.474540 
101 1 0     8.999210     8.177840     3.892280 
102 2 0     9.328420     7.254890     4.389520 
103 2 0     8.275860     7.869250     3.120470 
104 2 0     3.511060     4.299060     5.551940 
105 1 0     2.311710     6.059210     5.383480 
106 1 0     2.958290     4.824200     4.766270 
107 1 0     1.368580     7.399650     7.161690 
108 1 0     2.104650     6.288650     6.749460 
109 2 0     1.254090     7.542750     8.218770 
110 2 0     2.503460     5.575910     7.466470 
111 2 0     5.497170     5.916920     4.972990 
112 2 0     8.353190     8.658150     4.628050 
113 2 0    10.864300     9.212740     4.219730 
114 1 0    10.168600     9.061050     3.386880 
115 1 0    10.926100     8.318240     2.309590 
116 2 0    13.402800     4.559500     1.717910 
117 1 0    13.532500     5.483200     2.301070 
118 1 0    15.021000     5.910090     2.320430 
119 2 0    13.224500     5.179060     3.314850 
120 2 0    15.687700     5.032570     2.354940 
121 2 0    15.325200     6.477660     1.412950 
122 1 0    12.583800     6.569560     1.795330 
123 1 0    11.893800     7.371080     2.707880 
124 2 0    15.241600     6.539600     3.226010 
125 2 0    12.060700     7.177380     3.778730 
126 1 0    29.989100     5.670570     1.342480 
127 2 0    30.122800     5.032470     2.241320 
128 2 0    29.090100     6.288990     1.528330 
129 2 0    -0.506170    10.060500     4.799740 
130 2 0    -1.235720    10.883300     5.886740 
131 1 0    -0.209660    10.462200     5.764060 
132 3 0     0.266910     9.553340     6.818540 
133 1 0     0.747820    11.646100     5.491350 
134 2 0    -0.527690    13.236700     6.640180 
135 3 0     0.321970    12.714800     4.601980 
136 1 0     0.329210    13.095800     5.967490 
137 2 0     1.110640    13.716700     6.384570 
138 2 0     1.802770    11.377200     5.742090 
139 2 0     9.785560    10.046600     3.067330 
140 2 0    23.805400    12.187500     3.705550 
141 1 0    24.624200    12.316500     4.385440 
142 2 0    25.248100    12.891200     3.675140 
143 2 0    22.028000    13.607900     4.813730 
144 1 0    22.778200    14.006300     5.524820 
145 2 0    22.302300    13.976900     6.568560 
146 3 0    24.001800    14.665000     5.159270 
147 1 0    24.168400    13.277000     5.454890 
148 3 0    25.260700    11.182000     5.113420 
149 2 0    24.395800    12.841200     6.452940 
150 2 0    27.545300    13.687600     2.415580 
151 1 0    27.935300    13.289100     1.496620 
152 3 0    30.019600    14.650200     1.711520 
153 2 0    30.219200    12.194500     3.041470 
154 2 0    31.117100    14.665400     3.593170 
155 1 0    31.077000    14.191200     2.609460 
156 2 0    32.118400    14.550600     2.447070 
157 1 0    31.203300    12.650400     2.815040 
158 1 0    31.915800    12.127700     1.503590 
159 3 0    32.380200    11.831500     2.844990 
160 2 0    28.570400     9.532440     7.673180 
161 2 0    26.323500     9.403500     6.727060 
162 1 0    26.942900    10.298100     6.579210 
163 1 0    28.186100    10.389700     7.145640 
164 1 0    30.163700    10.848600     8.942000 
165 1 0    31.144500     9.810500     8.963960 
166 2 0    31.946700     9.762290     8.246050 
167 1 0    26.440100    11.379500     5.852270 
168 1 0    28.889100    11.612900     6.980530 
169 1 0    28.390000    12.736700     6.275070 
170 1 0    27.128500    12.613200     5.739300 
171 1 0    30.201300    11.794200     7.728080 
172 2 0    28.981700    13.672900     6.155360 
173 2 0    26.754700    13.477500     5.193200 
174 2 0    30.396900    12.826900     8.042010 
175 2 0    31.044700    11.611700     7.066640 
176 3 0    -0.154460    25.554700     3.830070 
177 2 0     0.083290    24.584100     5.859010 
178 1 0    -0.158100    25.466000     5.261770 
179 2 0     1.932650    25.295300     4.539460 
180 2 0    33.473300    19.111600     3.432590 
181 2 0    33.213400    20.762400     3.141260 
182 2 0    35.850400    18.157900     1.870000 
183 1 0    34.462200    19.825700     1.651830 
184 1 0    34.022200    20.007500     3.110820 
185 1 0    35.158500    20.354700     4.069020 
186 2 0    36.601000    18.822100     3.592830 
187 1 0    36.401600    19.705700     4.155080 
188 2 0    33.981800    22.096300     4.691200 
189 1 0    34.912100    21.535300     4.817900 
190 1 0    35.833200    21.901800     5.744730 
191 2 0    35.641300    22.823400     6.363940 
192 1 0    37.049800    21.234200     5.919750 
193 1 0    37.339400    20.155500     5.056620 
194 3 0    37.959800    21.671100     6.891310 
195 2 0    38.281400    19.626200     5.163130 
196 1 0    39.283700    20.902100     6.832430 
197 2 0    39.954100    20.979900     5.947420 
198 2 0    39.242200    19.804700     6.881130 
199 2 0    38.202700    20.345600     8.902680 
200 1 0    40.033800    21.279000     8.088240 
201 3 0    40.476300    20.351700     9.089920 
202 2 0    40.154200    22.374700     8.162420 
203 1 0    39.128300    20.778500     9.292990 
204 2 0     0.601900    27.963200     4.281740 
205 1 0     1.100180    25.935800     4.394790 
206 2 0    -0.409720    26.231800     5.980840 
207 2 0     2.090840    27.647400     3.560110 
208 2 0     3.927110    27.040900     3.850030 
209 2 0     8.346520    26.987000     2.383280 
210 1 0     8.084890    27.304900     1.362010 
211 1 0     8.223990    29.732700     1.561150 
212 1 0     5.695030    28.050300     4.495530 
213 2 0     8.240170    28.676300     4.417010 
214 2 0     6.314310    27.761600     3.644140 
215 2 0     6.786560    31.087000     3.076850 
216 1 0     7.927660    31.096800     1.314420 
217 1 0     7.358370    31.559700     3.869600 
218 1 0     8.845120    32.131900     1.465010 
219 2 0     7.201160    33.498700     3.035200 
220 1 0     7.571650    32.919800     3.864950 
221 1 0     3.520340    28.092500     5.688260 
222 3 0     2.171510    27.681300     5.807570 
223 1 0     4.360500    27.690500     4.642590 
224 1 0     4.193610    28.849200     6.656650 
225 1 0     1.541170    27.411600     4.504420 
226 2 0     3.566930    29.174600     7.492310 
227 1 0     6.335830    28.810500     5.486060 
228 2 0     8.392500    29.024700     6.113470 
229 1 0     5.515660    29.217000     6.570670 
230 1 0     7.758680    29.276200     5.231450 
231 2 0     5.960550    29.786900     7.411290 
232 1 0     7.844880    30.774100     4.932580 
233 2 0     8.874300    30.925700     6.870310 
234 1 0     8.443130    31.470900     6.003300 
235 1 0     8.195760    33.639400     4.891260 
236 1 0     8.647300    32.827400     5.975540 
237 2 0     9.200540    33.206900     6.820130 
238 2 0     9.760110    28.576600     2.508080 
239 1 0     9.457500    29.584000     2.214570 
240 2 0    11.429800    30.265000     2.778090 
241 1 0    10.430300    30.544400     2.398860 
242 1 0    10.148400    31.867700     1.937120 
243 1 0    11.164200    32.960900     1.662000 
244 2 0    12.163500    32.564900     1.863920 
245 2 0     7.993160    35.349800     7.098000 
246 3 0     8.100240    35.028900     4.818820 
247 1 0     8.397270    35.723000     6.121720 
248 1 0     7.859280    37.104400     5.929640 
249 2 0     7.356320    37.293300     4.994690 
250 3 0     7.821030    37.926300     7.104840 
251 1 0     8.910700    38.242300     6.234210 
252 2 0     8.898120    39.044000     5.487600 
253 1 0    11.040300    35.386200     1.395390 
254 1 0    11.117200    36.704200     1.860790 
255 1 0    11.299800    35.970600     4.083420 
256 1 0    11.206300    34.623600     3.702870 
257 1 0    11.025500    34.327200     2.333500 
258 2 0    11.261500    33.780700     4.419290 
259 2 0    10.252000    39.525500     2.048250 
260 1 0    11.204200    37.074000     3.205450 
261 3 0    11.333500    38.427500     3.615050 
262 1 0    11.254800    39.370500     2.465780 
263 1 0    11.735300    40.734100     3.006100 
264 1 0    12.237000    41.740000     1.880990 
265 2 0    11.814000    39.237300     1.574600 
266 2 0    12.394500    40.632200     3.878530 
267 2 0     9.439230    35.817900     6.460520 
268 2 0    11.419000    36.196000     5.151410 
269 2 0     9.946030    37.813200     6.164850 
270 3 0    11.067400    41.956400     2.701170 
271 2 0    13.232700    42.176100     2.102500 
272 2 0    16.312000    -2.497550    14.778500 
273 2 0    15.818400    -0.846970    14.462800 
274 2 0    17.362200     1.016930    14.792200 
275 1 0    16.689600    -1.534340    14.410100 
276 3 0    17.019600     0.195000    16.933500 
277 2 0    18.359200    -1.654350    15.951600 
278 2 0    18.807800     0.854900    15.745800 
279 1 0    17.775500     0.409610    15.657700 
280 3 0    17.931000    -1.272070    13.734800 
281 1 0    17.958100    -0.992710    15.139100 
282 1 0    29.975900     8.688160    10.854700 
283 1 0    31.001100     8.808940     9.878200 
284 2 0    31.712500     7.991550     9.850470 
285 3 0    29.842700     7.507940    11.599000 
286 2 0    29.018300     5.311800    13.161800 
287 1 0    28.691100     6.288590    13.491500 
288 2 0    27.723100     6.871650    11.722100 
289 1 0    28.583900     7.262880    12.326600 
290 2 0    27.996300     8.125500    12.674400 
291 3 0    27.849400     6.542510    14.628600 
292 1 0    29.226500     6.629040    14.957500 
293 2 0    29.870800     5.829370    15.387100 
294 2 0    29.773500     7.586240    15.000900 
295 1 0    29.225500    10.857700     9.979930 
296 1 0    29.156900     9.829220    10.902100 
297 2 0    28.485300    11.647100    10.058700 
298 2 0    28.365400     9.938870    11.632800 
299 2 0    -0.636190    23.851800    15.949500 
300 2 0    -0.338320    22.197400    15.650300 
301 1 0     0.121000    23.183600    15.590100 
302 1 0     0.404650    23.532800    14.094400 
303 2 0     1.124760    22.838300    13.599600 
304 2 0    -0.512470    23.500400    13.496100 
305 2 0     0.602570    25.050400    17.318300 
306 2 0     0.879750    24.525400    13.958400 
307 2 0     1.279080    20.941400    15.460900 
308 4 0     2.299600    21.010600    15.647300 
309 1 0     3.621430    22.488600    17.085100 
310 1 0     2.464120    22.255100    16.330200 
311 2 0     2.927870    20.246500    15.980800 
312 1 0     1.410730    23.233800    16.384800 
313 2 0     4.677200    20.600500    16.415000 
314 1 0     4.867030    21.653800    16.714100 
315 2 0     5.366370    22.106200    15.837500 
316 1 0     1.447400    24.309500    17.274700 
317 2 0    21.789800    19.689700    15.453900 
318 1 0    22.477600    20.384900    14.906900 
319 1 0    23.729400    19.629900    14.549900 
320 2 0    21.825700    20.336500    14.040000 
321 3 0    22.729300    21.763800    15.417000 
322 1 0    21.749500    22.479500    16.121100 
323 2 0    20.184100    21.020100    15.702100 
324 1 0    20.464400    21.914200    16.310300 
325 1 0    21.972400    23.708300    16.764900 
326 1 0    19.565800    22.370000    17.256300 
327 2 0    18.570900    21.909500    17.335500 
328 2 0    24.391400    19.999400    16.642500 
329 1 0    24.734400    19.430100    15.780900 
330 3 0    24.013100    18.366300    15.153500 
331 2 0    24.171400    19.925100    13.583900 
332 2 0    22.834300    24.299700    16.509200 
333 2 0    25.785600    19.704600    15.607300 
334 1 0    29.586000    23.214900    15.967500 
335 2 0    28.072900    23.340000    14.330500 
336 2 0    29.297800    22.189300    16.361900 
337 2 0    29.502700    22.416500    13.919400 
338 1 0    29.157300    23.287900    14.479500 
339 2 0    30.701300    23.162200    15.977600 
340 1 0    28.970900    25.569900    16.587300 
341 1 0    29.117300    24.218400    16.993900 
342 2 0    29.604900    24.082000    13.874800 
343 2 0    38.741000    21.531500    10.035700 
344 2 0    12.187400    33.532600    10.171200 
345 2 0    11.385500    30.118500    12.724800 
346 3 0    10.764200    31.668300    11.214200 
347 1 0    12.624200    33.279900    11.164100 
348 1 0    11.220100    31.178400    12.475100 
349 2 0    12.957100    31.127600    11.084200 
350 1 0    12.175100    31.846200    11.352500 
351 2 0    11.318100    31.719100    13.423900 
352 3 0    14.091600    33.428100    11.215200 
353 2 0    12.977900    33.498500    13.670600 
354 1 0    23.498200    29.747400    15.459200 
355 1 0    22.275600    29.681300    16.115100 
356 2 0    21.337000    29.710000    15.460400 
357 3 0    23.340100    29.808600    14.058500 
358 1 0    22.081900    29.645100    17.445500 
359 1 0    24.631700    29.699400    16.307900 
360 2 0    25.503400    29.923000    13.405300 
361 2 0    24.520300    29.497200    12.201700 
362 1 0    24.445900    30.102800    13.118200 
363 2 0    25.614600    29.669400    15.809300 
364 2 0    18.685300    33.562900    15.525700 
365 2 0    23.365400    31.792200    12.330800 
366 1 0    24.384600    31.514400    12.538800 
367 3 0    25.556600    32.258900    12.133500 
368 1 0    25.257900    32.397100    13.536300 
369 2 0    24.650400    33.143300    14.026500 
370 2 0    29.275400    25.853800    15.542500 
371 2 0    29.857700    29.177700    17.343900 
372 2 0    28.905400    29.855200    16.102100 
373 1 0    29.254700    28.876100    16.474500 
374 2 0    27.410500    27.758100    16.099400 
375 2 0    29.928300    28.464800    15.700700 
376 1 0    28.108700    27.877600    16.943300 
377 2 0    25.689000    31.777400    14.357100 
378 2 0    11.982500    33.916100    11.781500 
379 1 0    15.882400    34.768300    14.825500 
380 1 0    14.645600    33.932900    12.420800 
381 1 0    14.023500    33.834400    13.681000 
382 1 0    14.588600    34.220000    14.860700 
383 1 0    16.565900    34.810600    13.588200 
384 1 0    15.939800    34.451800    12.421200 
385 2 0    16.448900    34.576400    11.468100 
386 1 0    16.474300    35.370700    16.098400 
387 2 0    16.064100    34.780900    16.969300 
388 2 0    14.005900    34.168700    15.781400 
389 2 0    15.997700    36.337500    16.236900 
390 1 0    18.989800    34.554900    15.936900 
391 1 0    17.993800    35.506700    16.258700 
392 2 0    17.569500    35.198600    13.553000 
393 1 0    19.777200    36.959200    17.116300 
394 1 0    18.455800    36.701600    16.843900 
395 2 0    21.052600    34.068900    16.004300 
396 1 0    20.771700    35.992900    16.913600 
397 1 0    20.296200    34.843100    16.232200 
398 2 0    22.996500    34.334900    16.335100 
399 3 0    22.098100    36.172600    17.327400 
400 1 0    23.046400    34.984700    17.213000 
401 2 0    24.111000    35.151500    16.987200 
402 2 0    17.732800    37.495500    17.091200 
403 1 0     0.350160    -0.558000    23.528300 
404 2 0     0.685640    -1.190680    22.709000 
405 2 0    -0.063290     0.354890    23.108100 
406 2 0    -0.487530    -1.102140    23.985100 
407 2 0     2.387020    -0.063950    24.115200 
408 1 0     1.477020    -0.365070    24.625600 
409 2 0     1.729530    -1.374320    25.034900 
410 2 0    17.211000    -1.853420    18.432400 
411 2 0    20.870800    -2.056540    21.231500 
412 2 0    19.045500    -2.515070    19.954300 
413 1 0    17.965700    -1.088000    18.708300 
414 1 0    17.878300     0.135150    18.062500 
415 1 0    18.832300     1.092460    18.479100 
416 1 0    21.669600     0.155200    22.733300 
417 1 0    21.961100    -0.194320    21.399400 
418 1 0    22.818100     0.650760    20.636900 
419 1 0    21.173500    -1.211980    20.590200 
420 1 0    20.001400    -0.562210    19.847400 
421 1 0    18.962100    -1.485010    19.563800 
422 1 0    19.872800     0.743400    19.326400 
423 2 0    20.897100    -0.357800    23.277600 
424 2 0    22.927000     0.515460    19.556700 
425 2 0    21.831800    -1.693190    19.841300 
426 1 0    22.324600     1.204600    23.337800 
427 4 0     1.247910     2.516500    24.016600 
428 2 0     0.862300     4.806930    25.330200 
429 2 0     1.346130     1.696490    23.361900 
430 2 0     1.743620     3.456560    23.939100 
431 2 0     6.845780     3.402290    23.230200 
432 1 0     1.280310     2.065510    25.367900 
433 1 0     6.914300     2.817060    25.388900 
434 1 0     6.419450     3.693690    24.197800 
435 3 0     5.542510     2.903710    25.029200 
436 2 0     7.593690     2.048170    25.035700 
437 2 0     6.713990     4.744530    24.327300 
438 2 0    18.781400     2.100690    18.083800 
439 1 0    23.306300     1.947620    22.648400 
440 1 0    23.483200     1.656480    21.270400 
441 2 0    20.652600     1.501070    19.557500 
442 2 0    24.191500     2.275780    20.694100 
443 1 0    25.249300     3.484690    22.470500 
444 2 0    25.036400     3.932350    21.521500 
445 3 0    24.163900     2.839240    23.297000 
446 2 0    22.112500     1.451950    24.377200 
447 2 0    29.067700     4.362670    18.811600 
448 2 0    25.759000     4.377750    22.848200 
449 2 0    25.907600     1.532390    21.938800 
450 1 0    26.355000     2.465190    22.199500 
451 3 0    27.715500     2.868530    21.933700 
452 1 0    27.510300     2.373080    23.272800 
453 2 0    30.473800     3.266130    20.557200 
454 2 0    27.676300     1.361430    23.690700 
455 4 0    31.452700     3.556700    20.573400 
456 2 0    32.231500     3.215810    21.156900 
457 2 0    33.707000     3.423850    19.157200 
458 3 0    33.422100     3.498090    23.868900 
459 1 0    32.033700     3.857010    23.853700 
460 2 0    31.175700     3.197450    23.699900 
461 2 0    28.310500     5.870610    19.525000 
462 2 0    28.959600     7.162150    18.449300 
463 4 0    29.657700     7.822280    18.850700 
464 2 0    28.777400     4.510290    20.494100 
465 1 0    29.104200     5.112230    19.626800 
466 2 0    29.937000     8.853900    18.691800 
467 2 0    31.603700     4.845420    23.768600 
468 1 0    30.501500     5.736890    19.867600 
469 1 0    31.580400     4.935880    20.318000 
470 1 0    32.800500     5.653490    20.618700 
471 1 0    30.546400     7.133770    19.687700 
472 1 0    31.696500     7.797130    20.278100 
473 1 0    31.844800     9.285520    20.491500 
474 1 0    32.849800     7.058220    20.603200 
475 2 0    27.411800     3.048530    24.136000 
476 2 0    32.042400     1.680170    25.402700 
477 1 0    32.872000     3.658600    25.169700 
478 2 0    33.790400     4.185210    21.806800 
479 1 0    34.514600     3.860750    19.754000 
480 2 0    35.194800     4.382250    19.055000 
481 2 0    35.047100     2.948260    20.142000 
482 2 0    34.823000     5.414570    21.216400 
483 1 0    33.999400     4.783250    20.905500 
484 2 0    33.767100     7.561940    20.883000 
485 2 0    33.568600     9.713460    19.144100 
486 1 0    32.493700     9.950540    19.216600 
487 2 0    32.047000     9.564880    18.276100 
488 2 0    32.449400     9.456710    21.375200 
489 2 0    30.870100     9.748850    20.661500 
490 2 0    32.365300    11.025000    19.287200 
491 1 0     3.747080    23.607200    17.966300 
492 2 0     5.614380    21.637900    17.524700 
493 2 0     5.671010    23.175100    18.416300 
494 4 0     4.955150    23.917600    18.604500 
495 1 0     2.563670    24.396600    18.123300 
496 1 0     2.597270    25.440900    19.244000 
497 2 0     3.173430    25.012000    20.125400 
498 2 0     4.969370    24.792800    19.147700 
499 2 0    14.823000    20.746600    22.192900 
500 2 0    16.490900    20.163500    23.751000 
501 1 0    14.476600    21.556400    22.846500 
502 2 0    13.425600    21.538600    22.468500 
503 2 0    16.589500    20.920300    21.308700 
504 3 0    15.304700    22.863800    22.969900 
505 1 0    16.402600    22.976100    22.133600 
506 1 0    16.948900    21.972100    21.282800 
507 1 0    17.050300    24.224200    22.036700 
508 2 0    16.707800    25.031000    22.664400 
509 1 0    14.515100    21.118700    24.280900 
510 2 0    14.351300    22.011600    24.896100 
511 1 0    15.786000    20.274800    24.606000 
512 3 0    14.448700    19.757900    24.773300 
513 2 0    16.408500    20.676300    25.417500 
514 3 0    23.629500    23.316600    20.109300 
515 1 0    19.912700    23.515800    17.974400 
516 2 0    23.186500    19.712500    20.595600 
517 2 0    22.719200    21.389600    18.836900 
518 1 0    23.813600    21.198500    19.025300 
519 1 0    17.836500    22.116700    20.238400 
520 2 0    18.156600    21.291600    19.573500 
521 1 0    18.304800    23.457500    20.113100 
522 2 0    24.909900    22.895600    18.368000 
523 1 0    24.106400    20.119800    20.132400 
524 3 0    24.570200    20.020100    18.774200 
525 2 0    24.609600    20.545900    21.030700 
526 2 0    25.515100    22.199900    19.784900 
527 1 0    24.554600    22.501100    19.324200 
528 2 0    25.371900    23.433100    23.354200 
529 1 0    21.092900    24.282500    17.665400 
530 2 0    21.353800    25.237100    18.119400 
531 1 0    17.988100    24.452500    21.057200 
532 2 0    18.402300    25.482000    20.951700 
533 2 0    21.937000    24.845500    21.279400 
534 1 0    23.515700    24.709500    19.805300 
535 1 0    22.570500    25.404600    20.567200 
536 1 0    19.022200    24.222500    18.999100 
537 2 0    19.629000    25.050200    19.461200 
538 2 0    18.238800    24.818700    18.478200 
539 2 0    24.951600    24.928700    18.249300 
540 1 0    24.213000    25.463300    18.873100 
541 2 0    29.522600    21.817000    17.978500 
542 1 0    28.790000    23.743700    18.312800 
543 4 0    28.984000    22.408900    18.697000 
544 2 0    28.956700    22.264400    19.717000 
545 2 0    27.528500    23.440900    20.778800 
546 1 0    28.348100    24.769700    19.185700 
547 2 0    27.757900    25.146800    21.284700 
548 1 0    28.173300    24.344400    20.658300 
549 2 0    29.129300    24.124300    21.111500 
550 2 0    25.655400    25.129100    22.493500 
551 4 0    25.658400    23.171600    24.361600 
552 2 0    25.715500    22.220800    24.805400 
553 1 0    25.635200    25.551900    24.713400 
554 1 0    25.932700    24.243500    25.186800 
555 2 0     2.934140    27.104500    17.855600 
556 2 0     1.575180    25.649000    19.655100 
557 1 0     3.295730    26.759700    18.819300 
558 2 0     4.372170    26.652800    18.651100 
559 2 0     3.154720    27.586000    19.568300 
560 1 0    22.331200    26.761000    20.471400 
561 2 0    21.044200    29.621600    17.854200 
562 1 0    23.245700    29.540300    18.279900 
563 2 0    21.587100    27.223100    21.160300 
564 1 0    23.181700    27.501900    19.660300 
565 2 0    22.057000    29.354500    20.034000 
566 1 0    23.028500    29.026700    19.672200 
567 2 0    23.775500    29.458800    20.328300 
568 1 0    24.541000    29.643500    17.700600 
569 2 0    25.436800    29.514200    18.301500 
570 1 0    24.075500    26.831100    18.777200 
571 2 0    24.689400    27.353800    18.030400 
572 1 0    25.197800    25.801900    23.243400 
573 2 0    25.408900    26.808600    22.882300 
574 2 0    24.146800    25.632700    23.079000 
575 3 0    22.865300    32.647000    18.301400 
576 1 0    24.046800    33.077700    18.954100 
577 2 0    24.209800    33.104800    20.015700 
578 2 0    25.025900    33.293600    18.487100 
579 2 0    24.548700    27.900600    24.231600 
580 4 0    24.901700    27.841700    25.240700 
581 1 0    25.458900    26.616700    25.609500 
582 2 0    27.439400    28.337900    17.656400 
583 1 0    28.502200    26.480600    17.511100 
584 2 0    27.850800    28.066500    19.484400 
585 1 0    28.251200    26.144700    18.863100 
586 4 0    27.972600    27.121200    19.868100 
587 2 0    27.354800    26.713300    20.578100 
588 2 0    28.688400    33.202800    21.791300 
589 2 0    22.541900    34.679700    19.276800 
590 1 0    22.941200    34.096900    18.446200 
591 2 0    20.066500    37.887000    17.621100 
592 1 0    28.520300    34.044800    21.108200 
593 3 0    27.338900    34.269000    20.340000 
594 1 0    27.455100    35.148400    21.472200 
595 2 0    27.833700    36.203900    21.407600 
596 2 0    29.502200    34.486700    20.926100 
597 2 0    26.743700    33.764500    22.947000 
598 1 0    26.927100    34.869600    22.883000 
599 2 0    25.843400    35.115300    22.847800 
600 3 0    27.800100    35.519600    23.913300 
601 1 0    26.563700    34.219300    25.611200 
602 2 0    25.751900    34.050000    24.869100 
603 1 0    27.658400    35.002500    25.206500 
604 2 0     1.190920    -1.860470    28.893500 
605 1 0     1.067090     0.330380    29.406600 
606 1 0     0.979090     1.095960    28.087500 
607 1 0     0.782550     0.228980    26.975200 
608 1 0     1.138380     0.664410    25.662100 
609 2 0     0.471100    -0.800730    27.086200 
610 2 0     0.099720     0.111370    29.866700 
611 2 0     2.590810    -0.904620    28.226700 
612 1 0     1.872300    -0.992610    29.114000 
613 2 0     1.520940     0.976100    30.208400 
614 2 0     2.464150    -1.278520    30.007100 
615 2 0     4.126560    -3.844430    33.444100 
616 2 0     3.664420    -1.733220    32.808900 
617 3 0     4.328850     0.217140    33.414300 
618 2 0     8.812640     1.159880    33.005900 
619 1 0     6.746620     0.704560    33.206700 
620 2 0     6.972590    -0.344870    33.443800 
621 2 0     5.111260    -1.475660    32.131600 
622 1 0     4.598930    -1.211030    33.088600 