LAMMPS (09 Jan 2020)
package omp 0
WARNING: OpenMP support not enabled during compilation; using 1 thread only. (../fix_omp.cpp:125)
units			real
atom_style		charge
read_data d550000_lmps.dat
  orthogonal box = (-15 -15 -15) to (50 50 50)
  1 by 1 by 1 MPI processor grid
  reading atoms ...
  936 atoms
  read_data CPU = 0.000530958 secs
reset_timestep		0

pair_style              reax/c lmp_control lgvdw yes
pair_coeff              * * ffield C H O N

neighbor		2.5 bin
neigh_modify		delay 0 every 5 check no

fix			qeq all qeq/reax 1 0.0 10.0 1e-6 reax/c
fix			bonds all reax/c/bonds 500 bonds.reaxc
fix			npt all npt temp 300 300 100 iso 1.0 1.0 2000
fix 1 all reax/c/species 10 10 100 species.out cutoff 1 4 0.25
WARNING: Resetting reneighboring criteria for fix reax/c/species (../fix_reaxc_species.cpp:97)


thermo			100
thermo_style            custom step temp pe etotal press vol density
thermo_modify           flush yes

timestep		0.25

dump			1 all custom 1000 dump/dump.reax.npt.* id type xu yu zu
restart			500 restart.npt300 restart.npt300
run 1000000
Last active /omp style is pair_style reax/c/omp
Neighbor list info ...
  update every 100 steps, delay 0 steps, check no
  max neighbors/atom: 2000, page size: 100000
  master list distance cutoff = 12.5
  ghost atom cutoff = 12.5
  binsize = 6.25, bins = 11 11 11
  2 neighbor lists, perpetual/occasional/extra = 2 0 0
  (1) pair reax/c/omp, perpetual
      attributes: half, newton off, ghost, omp
      pair build: half/bin/newtoff/ghost/omp
      stencil: half/ghost/bin/3d/newtoff
      bin: standard
  (2) fix qeq/reax/omp, perpetual, copy from (1)
      attributes: half, newton off, ghost
      pair build: copy
      stencil: none
      bin: none
Per MPI rank memory allocation (min/avg/max) = 55.72 | 55.72 | 55.72 Mbytes
Step Temp PotEng TotEng Press Volume Density 
       0            0   -111368.09   -111368.09    -127.6021       274625  0.038816842 
     100    143.72808   -111755.97    -111355.4    293.42718    274628.66  0.038816325 
     200     167.3198   -111799.78   -111333.45   -392.34993     274649.4  0.038813394 
     300    177.37858   -111804.72   -111310.36    112.09921    274652.46  0.038812962 
     400    167.18854   -111747.23   -111281.26    206.63263     274661.4  0.038811698 
     500    180.04342   -111751.38   -111249.59   -114.63488     274664.4  0.038811274 
     600    184.87427   -111731.82   -111216.57   -317.31128    274666.08  0.038811037 
     700    186.15565    -111700.6   -111181.77    16.492405    274630.92  0.038816006 
     800    199.24085   -111699.42   -111144.13    64.781525    274560.43  0.038825972 
     900    207.92895   -111685.15   -111105.64    80.429763    274477.39  0.038837717 
    1000    204.62222   -111636.14   -111065.85    44.690844    274366.16  0.038853462 
    1100    224.20238   -111649.72   -111024.86    -12.05407    274264.32   0.03886789 
    1200    220.81966   -111599.06   -110983.63    85.328098    274171.62  0.038881031 
    1300    240.66581   -111612.49   -110941.74   -12.254589    274094.97  0.038891904 
    1400    256.66696   -111615.32   -110899.98    324.54379    274010.95  0.038903829 
    1500    259.32607   -111580.74   -110857.99    82.277518    273981.45  0.038908019 
    1600    251.54851   -111517.38    -110816.3   -21.555651    273954.51  0.038911844 
    1700     266.5754   -111518.31   -110775.35   -327.94107    273956.57  0.038911552 
    1800    274.91177   -111501.52   -110735.33   -17.648113    273995.34  0.038906046 
    1900    284.61134    -111490.1   -110696.87   -45.214949    274085.03  0.038893315 
    2000    280.62662   -111442.82    -110660.7    81.655762    274178.33   0.03888008 
    2100    292.94138   -111441.87   -110625.43     280.4117    274253.79  0.038869382 
    2200    289.56179   -111400.94   -110593.91    231.15894    274305.02  0.038862123 
    2300    303.48455   -111408.63    -110562.8    138.60788    274366.18  0.038853459 
    2400    306.33598   -111388.81   -110535.03   -97.408406    274394.32  0.038849475 
    2500    299.36198   -111344.29   -110509.95    2.1963665    274420.05  0.038845833 
    2600    324.36251   -111392.37   -110488.36    111.95573    274459.31  0.038840276 
    2700    309.60105   -111334.38   -110471.51    298.50988    274473.58  0.038838257 
    2800    312.15202   -111328.88    -110458.9    152.29108    274470.72  0.038838661 
    2900    323.20205    -111352.8   -110452.02   -102.95704    274455.98  0.038840747 
    3000    309.13351   -111315.04   -110453.46    19.578136    274429.51  0.038844494 
    3100    315.80721   -111340.28   -110460.11    22.706048     274445.8  0.038842188 
    3200    322.30888   -111372.35   -110474.06   -254.63331    274476.46  0.038837849 
    3300    314.87633   -111370.71   -110493.13    198.46073    274476.61  0.038837827 
    3400    302.21352   -111357.09   -110514.81   -12.083208    274456.76  0.038840636 
    3500    302.31003   -111379.54   -110536.98   -187.51583    274408.71  0.038847437 
    3600    303.33765   -111403.99   -110558.57    97.127666    274306.26  0.038861948 
    3700    301.36781    -111415.8   -110575.87   -190.51376    274209.55  0.038875653 
    3800    281.38402   -111374.46   -110590.23   -9.8589002    274166.51  0.038881756 
    3900     284.8253    -111393.8   -110599.98   -17.248317    274136.81  0.038885969 
    4000    296.20999   -111433.54   -110607.98    84.514229     274099.2  0.038891304 
    4100    289.84928   -111420.02   -110612.19   -380.83555    274037.82  0.038900016 
    4200    283.15247    -111401.4   -110612.24   -406.53501    273962.18  0.038910756 
    4300    295.08448    -111430.1   -110607.68    102.28425    273816.35  0.038931479 
    4400    288.75279   -111405.53   -110600.76    242.08964    273606.99  0.038961268 
    4500    299.33356   -111423.48   -110589.22   -198.01801    273357.74  0.038996794 
    4600    305.13669   -111425.78   -110575.34   -47.124702    273053.86  0.039040193 
    4700    296.15845   -111387.92    -110562.5    -180.5386    272751.36  0.039083492 
    4800    310.71436   -111418.09   -110552.11    8.9683838    272474.32   0.03912323 
    4900    310.92266   -111410.26    -110543.7    162.41556       272232  0.039158053 
    5000    312.35251   -111407.65    -110537.1   -179.39272    272003.11  0.039191005 
    5100    292.29392   -111348.38   -110533.74   -3.7959779    271784.09  0.039222588 
    5200    293.28908   -111347.71    -110530.3    192.95688    271571.23  0.039253331 
    5300    305.87713   -111381.42   -110528.92    25.464275    271389.29  0.039279646 
    5400    303.28026   -111373.82   -110528.56    161.41237    271240.21  0.039301235 
    5500    314.21128   -111403.35   -110527.63   -98.171814    271167.01  0.039311845 
    5600    302.61963   -111372.58   -110529.16   -98.135938     271123.1  0.039318211 
    5700    302.92209   -111378.01   -110533.75   -100.01583    271066.35  0.039326443 
    5800    299.52846   -111376.76   -110541.95   -43.214009    270987.34  0.039337909 
    5900    309.93818   -111414.93   -110551.11   -135.50916    270908.55   0.03934935 
    6000    298.73328   -111394.53   -110561.94   -213.83677    270832.64  0.039360379 
    6100    299.03307   -111405.06   -110571.64   -258.27445     270762.4   0.03937059 
    6200    289.64133   -111386.55    -110579.3   -23.459027    270694.01  0.039380537 
    6300    296.34821   -111412.96   -110587.02   -450.75106     270541.9  0.039402677 
    6400    300.56574   -111430.05   -110592.36   -106.46186    270270.91  0.039442186 
    6500    293.17473   -111413.26   -110596.16     109.9995    269989.85  0.039483245 
    6600    300.94904   -111437.12   -110598.36   -108.11705    269794.21  0.039511876 
    6700    293.84562   -111418.61   -110599.65    159.70601     269682.5  0.039528242 
    6800    287.95483    -111401.7   -110599.15    133.38885    269621.48  0.039537189 
    6900    293.83836   -111415.26   -110596.32    192.36955    269561.21  0.039546028 
    7000    292.05138   -111406.06   -110592.09   -137.49579    269501.04  0.039554858 
    7100    298.06322   -111417.93   -110587.21     1.962068    269450.53  0.039562273 
    7200     298.8933   -111413.54   -110580.51    115.94726     269349.9  0.039577054 
    7300    306.41535   -111427.15   -110573.15    192.17162    269219.73   0.03959619 
    7400    305.72995   -111416.36   -110564.27   -155.00068    269090.93  0.039615141 
    7500    304.94406   -111406.11   -110556.21    315.23365    268952.59  0.039635518 
    7600    308.27452   -111406.56   -110547.39    37.170266    268847.52  0.039651009 
    7700    292.74696   -111356.53   -110540.63   -38.103256    268729.69  0.039668394 
    7800    299.33281   -111368.86    -110534.6   -182.11642    268600.24  0.039687513 
    7900    305.96918   -111382.26    -110529.5   -52.437718    268494.43  0.039703152 
    8000    303.69632    -111372.3   -110525.89    316.38031    268443.03  0.039710755 
    8100    316.16985   -111405.44   -110524.26   -36.662618    268384.94  0.039719351 
    8200    315.64861   -111404.61   -110524.88   -175.47048    268298.95   0.03973208 
    8300    317.36328   -111411.99   -110527.48   -175.78256    268164.68  0.039751974 
    8400    298.78386   -111365.08   -110532.35    53.482336    268034.55  0.039771274 
    8500    310.13187   -111404.37   -110540.02   -328.77298    267906.51  0.039790281 
    8600    304.06096   -111394.36   -110546.93   -184.23909    267731.63  0.039816272 
    8700    306.50469   -111409.74   -110555.49   -219.73699    267522.14  0.039847451 
    8800    297.10166   -111391.68   -110563.64   -184.37238    267355.25  0.039872325 
    8900    303.45831   -111418.94   -110573.19   -141.93902    267220.17   0.03989248 
    9000    293.44915   -111399.79   -110581.93   -206.32073    267094.57   0.03991124 
    9100    285.89864   -111384.88   -110588.07   -11.412767    266953.75  0.039932293 
    9200     298.5484   -111424.36   -110592.29   -328.44105    266807.59  0.039954168 
    9300    297.85303   -111425.31   -110595.18   -217.26205    266644.35  0.039978629 
    9400    280.89593   -111378.44   -110595.56   -251.15302    266473.77   0.04000422 
    9500     293.2326   -111409.79   -110592.53    320.18466    266290.15  0.040031805 
    9600    294.35979   -111407.94   -110587.54    197.63568    266104.53   0.04005973 
    9700    305.30128   -111433.72   -110582.83    349.40554    265950.12  0.040082987 
    9800    291.53484   -111389.44   -110576.92   -108.74527    265833.82  0.040100523 
    9900    293.72232   -111389.33   -110570.71   -25.955728    265721.85  0.040117422 
   10000    303.34636   -111407.57   -110562.13    -60.84192    265619.78  0.040132837 
   10100    296.83265   -111381.16   -110553.87    292.50688     265574.6  0.040139665 
   10200    294.65393   -111366.96   -110545.74    137.28916    265576.21  0.040139421 
   10300    285.76995   -111334.33   -110537.87   -121.71828    265582.75  0.040138432 
   10400    307.19482   -111384.71   -110528.54   -375.83223    265542.55  0.040144509 
   10500    307.67717   -111379.29   -110521.78   -71.981693    265485.19  0.040153183 
   10600    308.86234   -111378.19   -110517.37    142.09192    265413.19  0.040164075 
   10700    309.86412   -111377.93   -110514.32   -103.75764    265342.54   0.04017477 
   10800     294.9028   -111334.03   -110512.12    26.224004    265229.08  0.040191955 
   10900    305.15543   -111362.12   -110511.63   -38.240714    265076.32  0.040215118 
   11000     306.4319   -111368.43   -110514.39    301.14399    264924.51  0.040238163 
   11100    308.09286   -111376.95   -110518.28    162.21334    264786.18  0.040259183 
   11200    304.07448   -111371.98   -110524.51   -79.329066    264654.12  0.040279272 
   11300    304.78307   -111382.87   -110533.42    257.50701    264542.14  0.040296323 
   11400    300.60262   -111382.74   -110544.95    121.37709    264460.87  0.040308706 
   11500    293.50506   -111374.42    -110556.4   -6.4923726    264382.36  0.040320675 
   11600     290.1423   -111375.33   -110566.68    145.91897    264281.16  0.040336115 
   11700    301.93618   -111416.23   -110574.71    243.31386    264165.79  0.040353732 
   11800    288.30826   -111386.07   -110582.54    74.551478    264047.25  0.040371847 
   11900    290.57763   -111397.72   -110587.86   -117.06596    263901.44  0.040394154 
   12000    290.01409   -111399.28      -110591    301.15385     263676.2   0.04042866 
   12100    291.95249   -111405.23   -110591.54    -131.9771    263415.97    0.0404686 
   12200    291.21739   -111402.16   -110590.52     92.92493     263134.2  0.040511935 
   12300    298.92698   -111419.66   -110586.53   -36.459679    262856.35  0.040554757 
   12400    292.33879   -111394.26    -110579.5    10.899542    262576.16  0.040598032 
   12500    295.80351    -111393.7   -110569.28    313.23839    262253.47  0.040647986 
   12600      289.862   -111365.52   -110557.65    -76.75473    261936.31  0.040697203 
   12700    301.13289   -111385.03   -110545.75    169.66369    261687.11  0.040735959 
   12800    302.32957   -111379.15   -110536.54   -136.19702    261488.27  0.040766935 
   12900    305.99064    -111381.5   -110528.69    460.64121    261299.23  0.040796429 
   13000    303.19055   -111367.37   -110522.36    61.046312    261105.61  0.040826681 
   13100    299.09673   -111352.75   -110519.15    65.102855    260869.43  0.040863643 
   13200    303.63533   -111364.69   -110518.44    171.31899    260631.21  0.040900994 
   13300    310.11969   -111385.24   -110520.92   -177.46419    260422.38  0.040933791 
   13400     305.2884   -111376.94   -110526.08   -127.07374    260223.33  0.040965103 
   13500    313.17808   -111407.74    -110534.9    -194.5196    260034.43  0.040994861 
   13600    298.51891   -111379.41   -110547.42    258.00367    259832.07  0.041026788 
   13700     294.8541   -111382.66   -110560.89   -174.25323    259606.65  0.041062413 
   13800    291.32041   -111385.77   -110573.85    121.22378    259303.66  0.041110393 
   13900    284.89884   -111376.54   -110582.51   -248.16424    258985.37  0.041160917 
   14000    291.54443   -111400.38   -110587.83   -282.69445    258650.81  0.041214158 
   14100    297.36661   -111417.88    -110589.1    248.03003    258314.51  0.041267815 
   14200    286.51844   -111387.39   -110588.85    228.63095    257975.46  0.041322052 
   14300    286.80677   -111384.45   -110585.11    199.79703    257638.79   0.04137605 
   14400    295.50952   -111402.85   -110579.25   -52.040946    257280.97  0.041433594 
   14500    287.77619   -111373.32   -110571.27   -133.76211    256871.29  0.041499677 
   14600    289.42139   -111370.15   -110563.52    32.853565    256444.91  0.041568676 
   14700    293.87419   -111378.69   -110559.65    157.66742       256006  0.041639943 
   14800    304.09335   -111403.07   -110555.55    19.036357    255553.31  0.041713705 
   14900    299.04168   -111385.78   -110552.33    86.816828    255133.55  0.041782334 
   15000    299.54827    -111385.2   -110550.34   -33.769319    254728.38  0.041848794 
   15100    303.07502   -111391.26   -110546.57    190.72579    254369.17   0.04190789 
   15200    286.41503   -111340.39   -110542.13    87.785716    254000.72  0.041968681 
   15300    307.62478   -111395.06   -110537.69   -154.25161    253633.03  0.042029524 
   15400    308.25957   -111391.61   -110532.47    43.737053     253266.2  0.042090398 
   15500    303.82992   -111373.53   -110526.73    258.21219    252894.98  0.042152183 
   15600    298.29238   -111353.45   -110522.09    -224.3173    252505.65  0.042217176 
   15700      298.655   -111349.91   -110517.54    41.599944    252136.38  0.042279006 
   15800    298.23287   -111345.97   -110514.77    203.34999    251733.11  0.042346736 
   15900     309.0754   -111374.06   -110512.64    73.069746    251327.21  0.042415126 
   16000    313.71685   -111388.56   -110514.21   -136.62197    250918.92  0.042484143 
   16100    296.88652   -111348.68   -110521.24    144.17335    250528.65  0.042550325 
   16200    297.41901   -111361.96   -110533.03   -46.741448    250213.56  0.042603907 
   16300    299.64423   -111383.15   -110548.02   -30.212257    249899.32   0.04265748 
   16400     291.6443   -111376.22   -110563.39    130.37709    249568.59  0.042714011 
   16500    293.67339   -111393.05   -110574.56     202.1245    249222.36   0.04277335 
   16600    305.06656   -111432.06   -110581.83   -85.991561    248883.75  0.042831545 
   16700    292.56191   -111402.32   -110586.94    43.066582     248551.9  0.042888731 
   16800    294.14143   -111408.31   -110588.52    -8.779271    248244.14  0.042941901 
   16900    300.59319   -111427.06   -110589.29   -131.20972    247967.02  0.042989892 
   17000    295.60982   -111412.07   -110588.19   -62.811135    247693.03  0.043037445 
   17100    291.99265   -111399.54   -110585.74    114.52732    247402.52  0.043087981 
   17200     299.1757    -111417.3   -110583.49   -102.40311    247056.81  0.043148275 
   17300    294.51586    -111400.8   -110579.96    82.845104    246666.21  0.043216602 
   17400    292.44951   -111389.18    -110574.1   -133.68724    246241.85  0.043291078 
   17500    304.94104   -111416.52   -110566.63   -105.86882    245777.02  0.043372954 
   17600    310.26115   -111421.34   -110556.63    142.64018    245297.04  0.043457822 
   17700    301.25871   -111383.37   -110543.75   -210.20138    244822.66  0.043542028 
   17800    289.99116   -111338.01   -110529.79    331.86753    244356.03  0.043625178 
   17900    300.01961   -111351.36   -110515.19   -43.926974    243917.11  0.043703681 
   18000    312.65048   -111374.98    -110503.6    107.47163    243488.42  0.043780625 
   18100    312.77848   -111369.75   -110498.02    239.79606    243031.79  0.043862884 
   18200    307.19479   -111353.84   -110497.67    359.81989    242541.85  0.043951489 
   18300    302.05745      -111341   -110499.15   -209.76013     242046.8  0.044041382 
   18400    312.46666   -111373.03   -110502.17    157.54146     241552.8  0.044131451 
   18500    304.42306   -111353.98   -110505.54     107.6821    241085.53  0.044216985 
   18600    301.73052   -111351.93   -110510.99   -157.56124    240617.77  0.044302944 
   18700    305.98233   -111369.63   -110516.84   -105.42527    240130.08   0.04439292 
   18800    302.78215   -111367.43   -110523.56    490.93958    239618.14  0.044487764 
   18900     301.6479   -111371.91    -110531.2    92.414039    239125.15  0.044579483 
   19000     303.8229   -111386.18   -110539.41   -345.41226    238641.18  0.044669891 
   19100    298.32369   -111378.77   -110547.32    184.48473    238170.46  0.044758177 
   19200    287.01415   -111355.75   -110555.82   -105.87208    237700.35  0.044846695 
   19300    296.78265   -111390.84   -110563.69    268.18772    237251.43  0.044931553 
   19400    294.62741   -111391.81   -110570.67    -97.91383    236825.36   0.04501239 
   19500    298.01103   -111405.37   -110574.79    178.42014     236389.2  0.045095442 
   19600    288.71203   -111380.76   -110576.11   -294.24802    236001.05   0.04516961 
   19700    295.14806   -111399.81   -110577.21   -32.642527    235644.52  0.045237951 
   19800    300.33447   -111413.37   -110576.32   -208.21616    235306.61  0.045302914 
   19900    304.79007   -111422.98   -110573.51    114.33876    234977.89  0.045366291 
   20000    296.28666   -111393.44   -110567.68   -19.485284    234646.95  0.045430274 
   20100    300.81167   -111396.92   -110558.54    218.49999    234321.22  0.045493426 
   20200    314.07264   -111419.21   -110543.88   -12.584074    233977.54  0.045560252 
   20300    303.77392   -111375.71   -110529.07   -29.768283    233637.85  0.045626492 
   20400    309.91131   -111379.96   -110516.22    163.34405    233314.91  0.045689645 
   20500    317.14503   -111392.43   -110508.53     366.8816    232992.51  0.045752868 
   20600    298.78643   -111337.79   -110505.06    144.88468    232649.85  0.045820254 
   20700     310.0283   -111368.16   -110504.09    -20.90285    232325.88   0.04588415 
   20800    305.26292    -111359.5   -110508.72      277.766    231966.29  0.045955278 
   20900    306.90413   -111371.32   -110515.96    58.401487     231576.7  0.046032591 
   21000    295.27403   -111347.85   -110524.91    318.79081    231172.44  0.046113089 
   21100    303.58067   -111381.91   -110535.82   -41.503194    230813.74  0.046184752 
   21200    300.88034   -111384.38   -110545.81    220.35657    230470.99  0.046253437 
   21300    296.88166   -111383.51   -110556.08    54.508431    230176.97  0.046312519 
   21400    300.17318   -111401.05   -110564.45   -147.21627    229915.36  0.046365216 
   21500    286.60688   -111370.13   -110571.34   -181.83103    229637.61  0.046421295 
   21600    288.07429   -111376.77   -110573.89   -60.944239    229311.05  0.046487405 
   21700    293.92912    -111393.9    -110574.7    271.63322    228998.67  0.046550817 
   21800    300.47007   -111411.49   -110574.06    -102.3276    228704.93  0.046610606 
   21900    289.18027    -111377.6   -110571.64   -87.945118    228373.31  0.046678289 
   22000     298.0567   -111393.91   -110563.21   -220.48327     228028.5  0.046748872 
   22100    309.90142   -111409.65   -110545.94     162.3972    227687.37  0.046818915 
   22200    294.93893   -111339.46   -110517.45     284.9183    227370.14  0.046884237 
   22300     301.0243   -111332.31   -110493.34    238.79522    227092.95  0.046941464 
   22400    310.18078   -111347.19    -110482.7    1.0624327    226831.52  0.046995565 
   22500    306.38929   -111334.01   -110480.08   -355.99142    226565.49  0.047050747 
   22600    314.62995   -111356.95   -110480.06    103.59197    226277.08  0.047110717 
   22700    313.85732   -111359.64    -110484.9    409.59139     226023.3  0.047163612 
   22800    312.32915   -111364.56   -110494.08    150.03543    225821.51  0.047205757 
   22900    304.01585   -111352.93   -110505.62     130.4436    225662.55  0.047239009 
   23000    300.89972   -111357.59   -110518.97   -66.837255    225480.78   0.04727709 
   23100    305.67188   -111382.47   -110530.55    86.790015    225302.97  0.047314402 
   23200    302.17407   -111383.11   -110540.94    244.73984     225149.5  0.047346653 
   23300    297.14278   -111378.83   -110550.67    417.68133    225024.92  0.047372866 
   23400    300.26826   -111394.58   -110557.71   -278.75024     224937.2  0.047391339 
   23500    302.61341   -111406.98   -110563.58   -306.52813    224841.87  0.047411434 
   23600    297.65317   -111398.05   -110568.47    302.46161    224719.22  0.047437311 
   23700    294.79676   -111392.14   -110570.53   -591.92413    224584.25  0.047465819 
   23800    295.51536   -111393.53   -110569.91   -210.85254    224423.15  0.047499892 
   23900     284.2007   -111357.95   -110565.87   -126.33628    224242.96  0.047538061 
   24000    292.66983   -111374.88   -110559.19   -44.945285    224058.56  0.047577185 
   24100    293.19377   -111368.27   -110551.12    201.49743    223865.04  0.047618313 
   24200    302.11733    -111381.4   -110539.38   -407.19625    223672.14  0.047659378 
   24300    305.60093   -111376.97   -110525.25    295.01807    223468.63  0.047702782 
   24400    290.18656   -111322.45   -110513.68    174.45284    223267.72  0.047745709 
   24500    318.24294   -111389.86    -110502.9   -228.16828    223060.46  0.047790072 
   24600    293.45317   -111314.35   -110496.48   -13.909138    222823.96  0.047840796 
   24700    306.95632   -111349.66   -110494.16   -320.89624     222581.5  0.047892908 
   24800     311.2188   -111362.75   -110495.36    44.999185    222330.09  0.047947065 
   24900    317.11126   -111383.16   -110499.36    250.78041     222094.1  0.047998013 
   25000    316.39408   -111386.32   -110504.52    179.13323    221901.35  0.048039705 
   25100    308.33165   -111371.05   -110511.72    48.670497    221721.47  0.048078678 
   25200    302.24297   -111361.66   -110519.29    513.19033    221548.26  0.048116267 
   25300    298.76353    -111359.2   -110526.53   -253.34783    221403.53   0.04814772 
   25400    305.25093   -111384.86   -110534.11    339.18839    221255.49  0.048179936 
   25500    308.61963      -111402   -110541.86   -58.353004    221134.92  0.048206205 
   25600    305.47441   -111402.46   -110551.08    155.30549    221051.63  0.048224369 
   25700    301.77162   -111399.56    -110558.5    101.58603    220985.21  0.048238863 
   25800    305.40546   -111414.79   -110563.61    87.914467    220906.81  0.048255982 
   25900      292.427   -111383.76   -110568.75   -91.094882    220808.47  0.048277474 
   26000    295.87277   -111396.04   -110571.42   -112.76478    220706.76  0.048299723 
   26100    296.58054   -111399.63   -110573.04    515.14825    220605.12  0.048321977 
   26200    299.42034   -111407.11   -110572.61   -19.781993    220515.64  0.048341583 
   26300    302.68209   -111415.73   -110572.13   -219.79448    220416.58  0.048363309 
   26400    294.39269   -111390.27   -110569.78   -113.41592    220315.63  0.048385471 
   26500    295.01261   -111388.87   -110566.66   -168.21596    220181.27  0.048414996 
   26600    302.69479   -111406.21   -110562.58   -143.05106    220019.57  0.048450579 
   26700    302.00559   -111399.24   -110557.53   -241.22193    219835.64  0.048491114 
   26800     293.7839   -111368.38   -110549.59    219.40648    219647.14  0.048532729 
   26900    296.19744   -111364.56   -110539.04    34.482891    219473.46  0.048571136 
   27000    309.47785   -111388.74   -110526.21   -479.42059    219283.56  0.048613199 
   27100    308.68338   -111373.61   -110513.29    71.972602    219062.11  0.048662342 
   27200     303.2147   -111347.06   -110501.98   -214.82373    218840.23  0.048711679 
   27300      309.626   -111357.21   -110494.26     201.3673    218581.02  0.048769446 
   27400     305.8968   -111343.88   -110491.32    147.62676    218347.81  0.048821535 
   27500    309.63162   -111355.08   -110492.12     70.47794    218131.35  0.048869983 
   27600    319.01437   -111388.29   -110499.17   -19.456419    217904.64  0.048920827 
   27700    304.69095   -111358.66   -110509.47   -93.831131    217684.19   0.04897037 
   27800    310.20206      -111387   -110522.45   -54.992286    217505.36  0.049010632 
   27900    303.39278    -111380.3   -110534.73   -46.394799     217368.6  0.049041469 
   28000    306.14418   -111399.67   -110546.42    260.12374    217242.91  0.049069842 
   28100    301.59348   -111395.59   -110555.03    -127.1839    217154.12  0.049089906 
   28200    303.66664   -111406.73   -110560.39   -325.92296    217061.54  0.049110843 
   28300    301.27853   -111403.91   -110564.23   -395.56313    216953.18  0.049135372 
   28400    294.47531   -111387.29   -110566.57    -220.3365    216819.97   0.04916556 
   28500    301.26157   -111406.47   -110566.84   -416.70545    216647.32  0.049204742 
   28600    300.41094   -111403.87   -110566.61    18.903552    216459.41  0.049247456 
   28700    303.14482   -111410.11   -110565.23   -135.38766    216261.08   0.04929262 
   28800     300.3213   -111402.09   -110565.08   -451.52497    216089.57  0.049331744 
   28900    306.26333   -111418.81   -110565.24   -32.840637    215946.29  0.049364477 
   29000    290.41478   -111375.42   -110566.02     130.2049    215807.15  0.049396302 
   29100    292.81413    -111385.2   -110569.11    70.354374    215665.53  0.049428739 
   29200    294.88874    -111394.4   -110572.53     468.4926     215491.8  0.049468589 
   29300    296.61321   -111405.21   -110578.53   -217.32147    215338.13  0.049503891 
   29400    288.35008   -111390.91   -110587.26   -37.754484    215148.43   0.04954754 
   29500    300.85689   -111435.63   -110597.13    96.710594    214955.33  0.049592049 
   29600    289.20953   -111414.46   -110608.42    284.25072    214777.76   0.04963305 
   29700    291.39326   -111430.44   -110618.31   -6.5486744    214624.12  0.049668581 
   29800    301.01737   -111465.28   -110626.32    2.5997398    214474.75  0.049703171 
   29900    292.55834   -111446.82   -110631.44   -159.06853    214297.42    0.0497443 
   30000    295.92183   -111458.72   -110633.97   -298.43202    214075.26  0.049795924 
   30100    282.72389   -111421.43   -110633.46    36.007524    213845.19  0.049849497 
   30200     287.3264   -111428.82   -110628.03    140.81124     213666.7   0.04989114 
   30300    290.99739   -111427.62   -110616.59    22.124877    213541.41  0.049920413 
   30400    301.38878   -111438.47   -110598.48    145.64876    213460.94  0.049939232 
   30500    303.79278   -111426.16   -110579.47   -234.93524    213390.16  0.049955796 
   30600    304.69653   -111413.92   -110564.72    39.331537       213307  0.049975271 
   30700    297.55444   -111386.15   -110556.85    89.675748    213221.98  0.049995199 
   30800    294.11609   -111372.92    -110553.2   -49.764683    213144.79  0.050013304 
   30900     296.0852   -111375.24   -110550.03    589.23887    213071.79  0.050030439 
   31000     302.5701   -111390.79   -110547.51    389.49624    213016.76  0.050043365 
   31100    298.62527   -111377.01   -110544.73   -107.62685     212965.2  0.050055481 
   31200    302.18517   -111384.73   -110542.52    17.812045     212898.5  0.050071162 
   31300    307.18553   -111399.16   -110543.02   -120.44328    212840.61  0.050084781 
   31400    283.35491    -111334.7   -110544.97   -65.240319     212744.6  0.050107384 
   31500    303.97814   -111393.77   -110546.56     304.4318    212634.42  0.050133349 
   31600    292.81905   -111364.43   -110548.33    30.339269    212480.92  0.050169564 
   31700    289.81169   -111355.13   -110547.41   -25.969919     212327.7  0.050205768 
   31800    291.31131   -111359.15   -110547.25    497.49196    212184.79  0.050239583 
   31900    310.80227   -111411.66   -110545.44   -331.68913    212077.23  0.050265062 
   32000     313.2511   -111418.07   -110545.02   -201.35716    211935.01  0.050298795 
   32100    306.19074   -111397.71   -110544.34    288.73668    211751.61  0.050342359 
   32200    297.76956   -111374.72   -110544.82   -66.415258    211547.22  0.050390998 
   32300    304.28195   -111394.95    -110546.9     632.2839    211336.92  0.050441141 
   32400    299.28675   -111383.36   -110549.23    366.27652    211109.57  0.050495462 
   32500    311.37726   -111419.76   -110551.93    101.74794    210891.46  0.050547687 
   32600    307.02595   -111413.29    -110557.6   -14.128687    210675.43   0.05059952 
   32700     297.7909   -111393.89   -110563.93    31.181591    210475.91  0.050647483 
   32800    289.57157   -111377.97   -110570.92   -142.79859    210294.06  0.050691282 
   32900    287.05086   -111377.83    -110577.8    154.55922    210108.93  0.050735946 
   33000    302.22824   -111426.53    -110584.2    135.13262    209917.45  0.050782226 
   33100    306.80479   -111445.52   -110590.44    437.54236    209715.94  0.050831021 
   33200     307.2218    -111455.9   -110599.65   -217.19685    209565.11  0.050867606 
   33300    298.08681    -111440.3   -110609.51   -214.20472    209485.43  0.050886954 
   33400     292.3817   -111433.69   -110618.81    311.14958    209437.56  0.050898585 
   33500    292.85216   -111440.67   -110624.47   -415.00389    209359.04  0.050917674 
   33600     284.6966   -111420.13   -110626.66    432.85331    209260.84  0.050941568 
   33700     287.5874   -111427.79   -110626.27    199.99703    209163.58  0.050965255 
   33800     300.4755   -111460.22   -110622.78   -339.98567    209093.97  0.050982222 
   33900    292.81821   -111429.43   -110613.33   -404.73318    208999.63  0.051005236 
   34000    281.93153   -111380.89   -110595.13    404.63389    208892.33  0.051031435 
   34100    296.07275   -111397.12   -110571.95    119.75492    208816.01  0.051050087 
   34200    292.10094   -111368.75   -110554.65   -34.652642    208757.15   0.05106448 
   34300    300.87933   -111381.78   -110543.22    145.27857    208694.41  0.051079832 
   34400    305.63639   -111387.78   -110535.96    63.860169    208599.31  0.051103118 
   34500    307.10987   -111387.82   -110531.89    408.91406    208508.54  0.051125365 
   34600    301.70295   -111371.79   -110530.93   -340.76949    208416.86  0.051147855 
   34700    306.33286   -111385.98   -110532.21    243.94224    208334.79  0.051168004 
   34800    293.34732   -111351.93   -110534.35    91.283276     208251.7  0.051188421 
   34900    298.74986   -111369.42   -110536.79   -306.00342    208186.14  0.051204539 
   35000    299.92211   -111375.25   -110539.35   -230.42699     208110.6  0.051223125 
   35100    297.99871   -111374.94    -110544.4   -200.80428    208038.89  0.051240782 
   35200    312.54575   -111423.46   -110552.38   -150.65501    207977.66  0.051255867 
   35300    306.09355   -111414.98   -110561.88   -323.07581    207931.85  0.051267159 
   35400    297.79706      -111402   -110572.03   -257.32352    207899.54  0.051275127 
   35500    295.60232   -111404.94   -110581.08   -368.56191    207832.59  0.051291645 
   35600    305.34333   -111438.29   -110587.28    629.73153    207744.51  0.051313391 
   35700    289.58339   -111399.41   -110592.33   -250.52149    207653.63   0.05133585 
   35800    292.33346   -111409.29   -110594.54   -303.03795    207559.96  0.051359015 
   35900    297.97467   -111424.94   -110594.47   -174.69759    207430.84  0.051390985 
   36000      293.244   -111410.69    -110593.4   -89.015373    207277.09  0.051429105 
   36100    295.61672   -111413.77   -110589.87     146.9558    207101.61  0.051472683 
   36200     302.3567   -111424.28   -110581.59    284.37372    206927.72  0.051515937 
   36300    300.72744   -111404.88   -110566.74   -25.785167    206777.59   0.05155334 
   36400     302.7645    -111390.9   -110547.08    97.429803    206639.79  0.051587718 
   36500    304.59274   -111378.08   -110529.16    241.71252    206478.01   0.05162814 
   36600     294.7022   -111338.48   -110517.13   -356.10049    206295.97  0.051673697 
   36700    317.90564    -111396.1   -110510.08    128.13233    206099.67  0.051722912 
   36800    303.14712   -111350.59    -110505.7   -335.19136    205944.73  0.051761826 
   36900    297.06207    -111333.2   -110505.27    150.40331    205810.52  0.051795582 
   37000    315.61666   -111387.07   -110507.43   -300.29838    205698.91  0.051823683 
   37100    308.22782   -111371.37   -110512.33    82.103665    205530.07  0.051866257 
   37200    313.18216   -111394.06   -110521.21    118.21626    205339.48  0.051914398 
   37300    323.12388   -111433.41   -110532.84    96.690572    205195.03  0.051950944 
   37400    305.08303   -111397.38    -110547.1    -11.45651    205082.36  0.051979484 
   37500     297.4182   -111388.86   -110559.94    484.36946    204961.05  0.052010248 
   37600    310.10164   -111434.12   -110569.85   -114.83066    204821.91   0.05204558 
   37700    301.50747   -111417.72    -110577.4   -21.314862    204711.08  0.052073759 
   37800    298.74979    -111413.2   -110580.56    -253.2053    204631.17  0.052094093 
   37900    292.08196   -111396.91   -110582.86    312.68664    204559.63  0.052112314 
   38000    304.06809   -111430.52   -110583.07    18.039783    204479.15  0.052132824 
   38100    299.47466   -111417.46   -110582.81   -132.61893    204399.38  0.052153169 
   38200    287.35281   -111381.77    -110580.9   -417.34835       204329  0.052171132 
   38300     295.8058   -111400.31   -110575.88     289.4278     204236.8  0.052194684 
   38400    298.59113   -111401.86   -110569.67   -187.39525    204103.17  0.052228858 
   38500    304.66688    -111411.4   -110562.27    23.647521    203953.98  0.052267063 
   38600    307.61112    -111410.4   -110553.07   -196.20414    203789.88   0.05230915 
   38700    295.34926   -111367.45   -110544.29    254.13216    203639.17  0.052347863 
   38800    301.33916   -111374.82   -110534.97   -279.36182    203523.29  0.052377668 
   38900    299.92953   -111361.65   -110525.73   -357.15675    203383.94  0.052413555 
   39000    301.96668    -111358.5    -110516.9   -10.680262    203196.28  0.052461962 
   39100    314.42557   -111384.21   -110507.89    18.452337    202997.96  0.052513213 
   39200    309.71568   -111363.64   -110500.45   -49.870442    202805.31  0.052563098 
   39300     309.4209   -111356.52   -110494.15   -34.746454    202611.98  0.052613252 
   39400    311.89116   -111361.18   -110491.92   -103.07115    202421.38  0.052662793 
   39500    314.73518   -111370.61   -110493.42    -385.0512    202230.27  0.052712562 
   39600    302.46537   -111343.42   -110500.43   -353.30545    202046.52    0.0527605 
   39700    308.80465   -111373.46    -110512.8    9.1179266    201881.03  0.052803749 
   39800    307.03812   -111384.53    -110528.8   -260.72949    201743.59  0.052839722 
   39900    303.22622    -111391.1   -110545.99   -534.81699    201596.99  0.052878146 
   40000    298.64702   -111393.85    -110561.5   -151.40151    201417.58  0.052925248 
   40100    295.51065   -111396.49   -110572.89    29.658683    201225.23   0.05297584 
   40200     299.0099   -111415.39   -110582.03      -190.71    201062.74  0.053018651 
   40300     296.9331   -111417.12   -110589.55   -540.32017    200933.37  0.053052786 
   40400    301.56873   -111435.64   -110595.15    170.15446    200839.12  0.053077684 
   40500    297.29251   -111428.77    -110600.2   -105.52349    200758.91   0.05309889 
   40600    288.76474   -111407.67   -110602.86     34.41865    200699.41  0.053114633 
   40700     294.4525    -111424.4   -110603.74    262.83773    200630.92  0.053132764 
   40800    283.53446   -111393.65   -110603.43   -386.73123     200552.2  0.053153621 
   40900     299.0914   -111433.11   -110599.53   -263.75214    200426.02  0.053187083 
   41000    293.65496   -111411.58   -110593.14    114.43873    200260.21   0.05323112 
   41100    298.51838    -111414.8   -110582.81    223.43237    200084.91  0.053277757 
   41200    299.15475   -111403.11   -110569.35   -490.33093    199915.68  0.053322857 
   41300    301.51899   -111397.86   -110557.51    278.95882    199767.49  0.053362414 
   41400    309.63351   -111410.33   -110547.36    -218.2155    199648.31  0.053394268 
   41500    310.12972   -111405.09   -110540.74    211.16161    199535.77  0.053424382 
   41600    303.34453   -111381.28   -110535.84    198.49211    199404.18  0.053459637 
   41700    301.47771   -111373.11   -110532.87   -94.794377    199283.51   0.05349201 
   41800     300.3726   -111369.68   -110532.52    434.37373    199199.41  0.053514593 
   41900    309.34696   -111395.38   -110533.21   -217.10427    199174.64  0.053521249 
   42000    298.04764   -111364.98   -110534.31   -647.54948    199135.23   0.05353184 
   42100     303.7764   -111383.18   -110536.53   -518.35773    199083.84   0.05354566 
   42200     305.1235   -111390.98   -110540.59    279.37436    199014.35  0.053564356 
   42300    298.74449   -111378.97   -110546.35   -314.50375    198928.28   0.05358753 
   42400    301.83507   -111398.45   -110557.22    120.23127    198800.19  0.053622059 
   42500    302.40841   -111418.81   -110575.98    80.648701    198650.47  0.053662471 
   42600    295.82812   -111426.31   -110601.82    28.662895     198497.6  0.053703799 
   42700     296.2025   -111445.95   -110620.42   -188.83294    198346.45  0.053744724 
   42800    285.34687   -111424.18    -110628.9   -87.756504    198156.58  0.053796223 
   42900    283.70295   -111421.45   -110630.76   -342.72735    197928.77  0.053858139 
   43000    285.99453   -111425.26   -110628.18   -240.43917    197673.98   0.05392756 
   43100    290.03417    -111430.4   -110622.06   -196.71197    197420.48  0.053996806 
   43200    296.32427   -111438.67   -110612.79    4.6598136    197167.17  0.054066179 
   43300    295.77004   -111426.17   -110601.84   -434.65679    196940.52    0.0541284 
   43400    290.52987   -111399.58   -110589.86   -186.82818    196722.86   0.05418829 
   43500    286.31442   -111376.83   -110578.86    44.066661    196520.99  0.054243954 
   43600    289.93228    -111376.5   -110568.45    42.638098    196329.04  0.054296986 
   43700    303.07746   -111404.71   -110560.01    318.57162       196155  0.054345162 
   43800    311.72293   -111422.09    -110553.3   -136.87668    195972.96  0.054395643 
   43900    315.75622   -111428.93    -110548.9    -182.1298    195773.92  0.054450947 
   44000    321.94793   -111442.92   -110545.63   -140.11696    195568.22   0.05450822 
   44100    311.55073   -111413.82   -110545.51    58.708132    195365.66  0.054564736 
   44200     307.4469   -111405.98   -110549.11   -90.124409    195181.78   0.05461614 
   44300    302.39104   -111397.65   -110554.87    90.475291    194993.38  0.054668909 
   44400     308.4965   -111422.24   -110562.44    102.55209     194808.6  0.054720764 
   44500    301.06992   -111412.79   -110573.69   -122.44719     194646.7  0.054766277 
   44600    306.21076   -111441.03    -110587.6    113.44384    194506.67  0.054805707 
   44700    294.24353    -111421.2   -110601.13    44.896468    194388.86  0.054838922 
   44800    300.06902   -111446.61    -110610.3   -148.41089    194262.43  0.054874612 
   44900    294.56606   -111436.02   -110615.05    343.40235    194121.68  0.054914399 
   45000    298.77828   -111450.08   -110617.37    26.674687     193967.2  0.054958134 
   45100    293.92697   -111437.14   -110617.95    29.300642    193811.53  0.055002277 
   45200    301.11153   -111456.57   -110617.35    32.680824    193625.76  0.055055047 
   45300    298.89234   -111450.67   -110617.64    122.06684    193438.39  0.055108375 
   45400    298.37325   -111446.69    -110615.1    11.378728    193279.97  0.055153545 
   45500    278.26296   -111389.07   -110613.53   -8.8533743    193130.82  0.055196138 
   45600    289.49318   -111415.67   -110608.83    162.20287    192975.31  0.055240618 
   45700    301.10304   -111441.24   -110602.05    226.79715    192821.99  0.055284543 
   45800    287.95387   -111396.23   -110593.69    24.855327    192677.19   0.05532609 
   45900    299.59302   -111418.06   -110583.07    -178.7366    192545.01  0.055364069 
   46000    295.45101   -111395.22   -110571.78   -332.95107    192401.25  0.055405436 
   46100    308.45314   -111421.74   -110562.07    283.16683    192254.08   0.05544785 
   46200     295.7422   -111380.05    -110555.8   -159.62442    192122.82  0.055485733 
   46300     289.8688   -111359.61   -110551.73   -16.794101    192037.69  0.055510328 
   46400    316.25225   -111430.54   -110549.13    -1.789918    191971.33  0.055529517 
   46500    319.02306   -111439.47   -110550.33    370.88505    191900.83  0.055549917 
   46600    314.29644   -111430.11   -110554.14    403.53726    191828.02  0.055571003 
   46700    300.33728   -111396.08   -110559.02    134.19383    191738.97  0.055596812 
   46800    305.15112   -111414.52   -110564.05    39.596202    191635.55  0.055626816 
   46900    295.68027   -111394.35   -110570.27    49.807195    191527.14  0.055658301 
   47000    299.26359   -111410.78   -110576.72     573.2547     191394.5  0.055696873 
   47100    287.35478   -111382.59   -110581.72    43.148292     191260.1  0.055736014 
   47200    299.52334   -111419.48   -110584.69    89.344856    191126.34   0.05577502 
   47300    297.80312   -111416.28   -110586.28     315.7036    191016.42  0.055807115 
   47400    297.65875   -111416.63   -110587.04   -461.66767    190919.49  0.055835447 
   47500    306.40121    -111439.8   -110585.84   -107.86168    190776.11  0.055877412 
   47600    296.42314   -111409.67   -110583.52   -459.04839    190583.53  0.055933876 
   47700    293.80044   -111399.36   -110580.53   -121.96915    190365.62  0.055997903 
   47800    303.55197   -111423.16   -110577.14    385.80373    190160.26  0.056058375 
   47900    305.90832   -111428.77   -110576.19   -77.102159     189985.7  0.056109883 
   48000    303.39818   -111420.55   -110574.96   -15.608416    189802.53  0.056164032 
   48100    304.94692   -111423.48   -110573.58    210.33522    189589.11  0.056227254 
   48200    288.98616   -111379.25   -110573.83    225.50328    189398.23  0.056283922 
   48300    304.24555   -111421.29   -110573.34   -103.89906    189239.05  0.056331267 
   48400    298.52093   -111406.23   -110574.23    521.16826     189095.5  0.056374029 
   48500    293.30334   -111392.04   -110574.59    258.25633    188969.07  0.056411747 
   48600    294.36416   -111394.31    -110573.9    199.90109    188856.35  0.056445416 
   48700    306.52817   -111426.36   -110572.05   -75.048852    188787.11  0.056466118 
   48800       291.48   -111382.74   -110570.37  -0.22470116     188741.7  0.056479703 
   48900    293.34341   -111386.31   -110568.74    299.89353    188693.11  0.056494247 
   49000     296.5463   -111393.51   -110567.02   -280.48937    188624.75  0.056514721 
   49100    308.09853   -111425.35   -110566.67    13.890221    188509.65  0.056549228 
   49200    304.60438   -111417.12   -110568.17    74.836357    188404.28  0.056580855 
   49300    301.45277   -111409.91   -110569.74   -241.73339    188308.19  0.056609726 
   49400    301.64751   -111413.78   -110573.08     50.06687    188187.92  0.056645905 
   49500    292.91296   -111393.85   -110577.48  -0.47253143    188076.05  0.056679602 
   49600    292.41075    -111398.1   -110583.14    228.63146    187974.73  0.056710152 
   49700    295.02273   -111414.55   -110592.31    -281.4449    187885.84   0.05673698 
   49800    300.42543   -111441.87   -110604.57    98.925267    187743.96  0.056779856 
   49900    289.98827   -111425.82   -110617.61   -84.318023    187579.75  0.056829563 
   50000    286.56294    -111426.8   -110628.14   -289.79962    187394.82  0.056885646 
   50100     295.9181   -111460.14    -110635.4    244.11373    187230.06  0.056935705 
   50200    288.49393   -111443.85    -110639.8   -313.37676    187103.96  0.056974076 
   50300    286.10418   -111436.71   -110639.32   -179.28471    187023.63  0.056998547 
   50400    282.30584   -111424.06   -110637.26    86.111973    186955.26  0.057019392 
   50500    294.48632   -111449.63   -110628.88   -372.05213    186880.19  0.057042297 
   50600    298.54844   -111447.89   -110615.82    183.85591    186801.38  0.057066363 
   50700    301.05715   -111438.27   -110599.21   0.39248228    186745.28  0.057083507 
   50800    305.02385   -111432.29   -110582.17    171.10833    186695.79  0.057098639 
   50900    295.29906   -111392.17   -110569.15    296.88325    186652.32  0.057111937 
   51000    306.05606   -111414.73   -110561.74    232.41388    186598.91  0.057128284 
   51100    301.71366   -111399.02   -110558.13   -109.61521    186514.09  0.057154263 
   51200     316.1982   -111438.45   -110557.18   -122.55363    186375.88  0.057196646 
   51300    299.41814   -111391.49      -110557   -3.8541871    186237.81   0.05723905 
   51400    301.85889   -111399.14   -110557.84    132.57743    186120.02  0.057275275 
   51500    306.25778   -111413.21   -110559.65    72.743193    186027.57   0.05730374 
   51600    313.25469   -111435.55   -110562.49    168.52993    185954.56  0.057326238 
   51700    310.60507    -111434.1   -110568.42   -640.01961    185872.88   0.05735143 
   51800    294.60361   -111397.25   -110576.17   -43.592189    185733.86  0.057394356 
   51900     301.7628   -111424.33    -110583.3   -26.857363    185555.67  0.057449471 
   52000    299.75216   -111425.13   -110589.71    -374.6046    185368.01  0.057507631 
   52100    287.26301   -111396.96   -110596.34   -119.84268    185190.84  0.057562649 
   52200    299.36189   -111437.13   -110602.79    579.77986    185028.16  0.057613258 
   52300    288.02407   -111411.35   -110608.61   -358.78782    184915.49  0.057648365 
   52400    293.18583   -111430.65   -110613.52    120.43268    184850.31  0.057668691 
   52500    283.55665   -111407.48   -110617.19    10.557924    184772.97   0.05769283 
   52600     289.6578   -111427.18   -110619.88    306.18822    184684.37  0.057720506 
   52700    294.87966   -111442.11   -110620.26    98.200817    184627.53  0.057738276 
   52800    296.95115   -111444.44   -110616.82    417.72007    184580.46  0.057752999 
   52900    290.17417   -111418.16   -110609.42    11.046094    184523.62  0.057770791 
   53000    296.37968   -111423.83   -110597.81   -216.56423     184437.8  0.057797671 
   53100    290.65734   -111394.37   -110584.29    155.41521    184334.53  0.057830052 
   53200    303.07137   -111415.65   -110570.97   -97.519461    184223.71  0.057864841 
   53300    289.63058    -111367.6   -110560.39    808.41541    184110.31   0.05790048 
   53400    304.44076   -111399.56   -110551.06   -478.08045     184032.4  0.057924991 
   53500    302.59509   -111386.72   -110543.37   -65.247949    183940.94  0.057953794 
   53600    310.97714   -111405.36   -110538.65   -139.29105    183831.13  0.057988412 
   53700    313.37327   -111408.89    -110535.5   -20.784493    183679.97  0.058036136 
   53800      310.062    -111397.2   -110533.04    -33.13875    183526.13  0.058084783 
   53900    306.49978   -111385.47   -110531.24     230.3509    183394.91  0.058126344 
   54000    293.15383   -111348.82   -110531.78   -302.73805    183303.19  0.058155429 
   54100    309.99811   -111399.98      -110536    244.81803     183212.2  0.058184311 
   54200      305.297   -111395.91   -110545.03    189.38954    183114.93  0.058215215 
   54300     310.2849    -111422.6   -110557.81    432.51778    182993.82  0.058253747 
   54400    293.67132   -111394.05   -110575.58   -105.42474    182848.52  0.058300036 
   54500    294.12845   -111411.44   -110591.69     8.920687    182672.46  0.058356226 
   54600    293.25226   -111420.64   -110603.33   -225.55228    182512.09  0.058407502 
   54700    281.74172   -111394.04   -110608.81   -279.47295    182391.81  0.058446021 
   54800    287.37691   -111411.15   -110610.22    46.273028    182302.04  0.058474801 
   54900    290.90788   -111420.99   -110610.22    9.6346988    182204.86  0.058505987 
   55000    289.85037   -111415.21   -110607.38   -296.15305    182101.54  0.058539184 
   55100    302.04599      -111446   -110604.18    60.287164    182022.87  0.058564482 
   55200     301.5537    -111440.8   -110600.35    82.544349    181970.42  0.058581365 
   55300    290.88186   -111405.18   -110594.47   -123.65581    181939.21  0.058591413 
   55400    288.23671    -111389.9   -110586.57   -224.16976    181877.18  0.058611396 
   55500    290.49638   -111387.77   -110578.14     70.20806    181797.13  0.058637202 
   55600    310.14069   -111434.11   -110569.73    24.669096    181682.82  0.058674096 
   55700    292.70851   -111379.87   -110564.07   -398.90725    181577.09  0.058708262 
   55800    302.53957   -111402.53   -110559.33    155.25712     181448.8  0.058749771 
   55900    295.55117   -111379.67   -110555.95   -417.45899    181323.35  0.058790418 
   56000    302.45466   -111396.13   -110553.18   -276.71388    181201.19  0.058830051 
   56100     302.1852   -111394.43   -110552.23   -120.51244    181100.59  0.058862732 
   56200    307.50958   -111408.93   -110551.88   -213.65598    181003.72  0.058894234 
   56300    302.23781   -111395.49   -110553.13    -64.89313    180888.42  0.058931772 
   56400    298.17809   -111387.63   -110556.59    106.36561    180736.89  0.058981183 
   56500    304.86345   -111410.68   -110561.01    -290.7346    180575.55   0.05903388 
   56600     297.0903   -111394.09   -110566.08   -308.78954     180412.2  0.059087331 
   56700    313.93153   -111445.29   -110570.35   -810.73098    180247.98  0.059141164 
   56800    302.93169    -111419.6   -110575.32   -222.23603    180059.03  0.059203225 
   56900    303.36643   -111422.53   -110577.03    135.62236    179852.03  0.059271365 
   57000    299.61694   -111412.96   -110577.91    252.34717    179664.59  0.059333203 
   57100    300.14748   -111415.01   -110578.48     237.5856    179513.22  0.059383232 
   57200    307.88086   -111437.51   -110579.43    142.60137    179429.19  0.059411043 
   57300    302.35526   -111424.04   -110581.36   -362.39948    179378.76  0.059427745 
   57400    305.97276   -111437.69   -110584.92    704.30582    179312.34  0.059449758 
   57500    302.95591    -111432.2   -110587.84   -275.14625    179244.19  0.059472362 
   57600    302.27501   -111430.83   -110588.38    563.75224    179208.16  0.059484317 
   57700    300.42908   -111426.16   -110588.85    387.21675    179221.42  0.059479919 
   57800    286.52965   -111385.99   -110587.42   -163.81743    179246.63  0.059471551 
   57900    296.09378   -111409.97   -110584.74    317.93473    179211.86  0.059483092 
   58000    294.60148   -111400.36   -110579.29   -101.10063    179163.09  0.059499284 
   58100    297.99671   -111400.82   -110570.29   -76.952754    179113.06  0.059515901 
   58200    306.01434   -111412.37   -110559.49    298.74169    179056.84   0.05953459 
   58300    309.75367   -111409.88   -110546.58   -234.13664    178985.78  0.059558225 
   58400    307.13914   -111391.07   -110535.05    34.510514    178867.54  0.059597598 
   58500    300.16788   -111361.76   -110525.17   -313.85742    178770.22   0.05963004 
   58600    308.77479   -111379.37    -110518.8   -340.93018    178693.81  0.059655537 
   58700    310.91934   -111379.94   -110513.39    -523.8075     178620.2  0.059680121 
   58800    306.21864   -111365.08   -110511.63   -90.082755    178539.98  0.059706937 
   58900    307.13114   -111369.27   -110513.27   -36.397497    178462.59  0.059732829 
   59000    310.58432    -111382.9   -110517.28    292.92597    178398.56  0.059754267 
   59100    304.62649    -111377.2   -110528.19   -120.62132    178353.78  0.059769272 
   59200    301.78136   -111386.01   -110544.93   -404.19497    178312.13  0.059783233 
   59300    301.28766   -111404.24   -110564.54   -169.79736    178249.45  0.059804254 
   59400    302.91105   -111425.12   -110580.88    41.663128    178187.65  0.059824995 
   59500    305.27715   -111441.09   -110590.27    424.25056    178160.65  0.059834063 
   59600    301.30438   -111434.66    -110594.9   -501.18019    178145.98  0.059838989 
   59700       295.36   -111420.56   -110597.38    295.00261    178115.15  0.059849348 
   59800    291.83706   -111412.23   -110598.87    178.75373     178063.8  0.059866608 
   59900    293.97341   -111417.48   -110598.16    789.01331    178014.86  0.059883066 
   60000     305.3665   -111447.17   -110596.09   -118.98727    178009.08  0.059885008 
   60100    296.78358   -111419.55   -110592.39    175.57032    178029.44  0.059878161 
   60200    294.73119   -111409.61   -110588.18   -162.89843     178051.8  0.059870642 
   60300    294.43374   -111401.83   -110581.23   -169.44346    178068.64  0.059864979 
   60400    292.72945   -111389.13   -110573.28    189.76613    178093.09   0.05985676 
   60500    307.82283   -111423.88   -110565.96    301.51111    178148.16  0.059838257 
   60600    305.56563   -111410.08   -110558.45   -84.264888    178197.34  0.059821742 
   60700    301.08476   -111390.33   -110551.19   -201.72543    178224.59  0.059812594 
   60800     307.8579   -111401.09   -110543.07   -597.26416    178234.06  0.059809418 
   60900    305.48628   -111386.73   -110535.32   -78.631123    178219.47  0.059814313 
   61000    306.17378   -111378.59   -110525.26   -302.03786    178197.45  0.059821707 
   61100    307.51749   -111374.05   -110516.98    182.11451    178155.74  0.059835711 
   61200    304.50154   -111358.52   -110509.86    277.40921    178097.56  0.059855257 
   61300    310.89117   -111368.86   -110502.39    470.76383    178002.66  0.059887168 
   61400    309.31768   -111357.76   -110495.68    57.309252    177922.56   0.05991413 
   61500    316.17803   -111372.51    -110491.3   -321.73118    177826.23  0.059946585 
   61600    318.44224   -111378.43   -110490.91   -196.24208    177735.03  0.059977345 
   61700    312.42923   -111368.81   -110498.05    353.87992    177616.36  0.060017417 
   61800     319.0501   -111402.38   -110513.17   -182.58454    177477.75  0.060064292 
   61900    296.64443   -111361.22   -110534.46    571.61393    177337.74  0.060111714 
   62000    307.91307   -111409.53   -110551.36    40.338425    177222.71  0.060150729 
   62100    308.14026    -111423.3    -110564.5     211.8841    177135.08  0.060180486 
   62200    303.87954   -111422.89   -110575.96    39.169721    177051.39  0.060208933 
   62300     290.5977   -111395.18   -110585.27   -425.58872    176932.41  0.060249422 
   62400    296.22861   -111419.68   -110594.08   -34.492225    176787.79  0.060298707 
   62500     300.2871   -111436.31   -110599.39   -615.19565    176656.77  0.060343431 
   62600    290.69531   -111415.18      -110605    380.66951    176549.53  0.060380083 
   62700    294.09806   -111427.15   -110607.48    300.52472    176471.59  0.060406752 
   62800    297.01608   -111437.53   -110609.73    465.50253    176428.21  0.060421604 
   62900    296.62421   -111437.09   -110610.38   -76.272691    176438.17  0.060418191 
   63000    301.92787   -111451.27   -110609.78    252.45194    176448.34  0.060414711 
   63100    297.77061   -111436.13   -110606.23    302.36248    176446.44  0.060415361 
   63200    301.61021   -111441.75   -110601.15   -50.390838    176423.21  0.060423314 
   63300    301.49894   -111434.74   -110594.45   -197.77532    176375.97  0.060439498 
   63400    298.79591   -111416.66    -110583.9    42.785688    176315.45  0.060460246 
   63500    294.46401    -111391.2   -110570.51   -152.04515    176249.36  0.060482917 
   63600    301.69772   -111396.75    -110555.9    204.47572    176135.83  0.060521903 
   63700    304.50152   -111393.21   -110544.55    222.09028    175997.69  0.060569404 
   63800      306.676   -111390.85   -110536.13   -368.14943    175868.98  0.060613734 
   63900    309.87924   -111395.57   -110531.92   -321.46427    175738.58  0.060658709 
   64000    310.49171   -111397.99   -110532.64   -128.85383    175594.23  0.060708573 
   64100    306.14946   -111387.86   -110534.61   -76.455582     175429.7  0.060765512 
   64200    309.23898   -111400.63   -110538.77   -12.663731    175272.07  0.060820161 
   64300     308.0257   -111402.93   -110544.45    264.64936    175159.44   0.06085927 
   64400    298.28571   -111382.35   -110551.01   -180.24926    175102.59  0.060879027 
   64500    305.15013   -111407.88   -110557.41    296.40302    175061.94  0.060893165 
   64600    307.92408   -111421.04   -110562.84    224.33299    175035.35  0.060902415 
   64700    308.73703   -111427.97   -110567.51    330.28076    175022.47  0.060906896 
   64800    298.61072   -111405.59   -110573.35    237.15588    175007.49  0.060912109 
   64900    299.50755   -111411.86   -110577.11   -690.22476    174970.21  0.060925086 
   65000     305.5666   -111430.47   -110578.84   -36.701013    174909.64  0.060946186 
   65100    295.58783   -111404.78   -110580.96    125.31557    174867.04  0.060961032 
   65200    292.23551   -111395.86   -110581.38   -156.85124    174843.83  0.060969124 
   65300    297.53289   -111410.96   -110581.71    35.742399     174833.2  0.060972833 
   65400    296.31882   -111405.47   -110579.61    16.157983    174830.61  0.060973736 
   65500    295.87835   -111401.35   -110576.72    20.018275    174816.38  0.060978697 
   65600     288.6868   -111378.76   -110574.18   -7.0523674    174800.89  0.060984103 
   65700    300.25471   -111407.28   -110570.46    13.549798    174787.86  0.060988649 
   65800    299.75711   -111402.48   -110567.04    373.56445    174775.56  0.060992942 
   65900     307.8912   -111421.22   -110563.11    81.968805     174746.8  0.061002979 
   66000    308.64018   -111419.84   -110559.64   -328.90344    174678.17  0.061026946 
   66100    295.51208   -111378.51   -110554.91    242.12789    174593.95  0.061056386 
   66200    302.48344   -111389.58   -110546.54   -275.43012    174541.81  0.061074624 
   66300    293.20637   -111350.14   -110532.96    333.96265    174513.14  0.061084658 
   66400    306.62659    -111369.3   -110514.72    247.94251    174509.49  0.061085935 
   66500     310.4001   -111363.09   -110497.99   -295.61997    174523.42  0.061081059 
   66600    320.54146   -111380.32   -110486.95    615.27337    174546.81  0.061072875 
   66700    302.89322   -111326.29   -110482.11    461.00584    174558.34  0.061068842 
   66800    309.21025   -111344.36   -110482.57    -61.00085    174546.08   0.06107313 
   66900    296.55456   -111312.76   -110486.25    299.04719     174501.9  0.061088593 
   67000    314.90144   -111371.12   -110493.47   -174.19576    174465.86  0.061101211 
   67100    307.48554   -111360.88    -110503.9   -9.0420167    174429.37  0.061113994 
   67200    307.75811   -111372.88   -110515.14   -190.95859    174402.33   0.06112347 
   67300    310.57058   -111391.57   -110525.99    89.644416    174357.96  0.061139024 
   67400     297.8841   -111364.93   -110534.71    267.27991    174310.04  0.061155832 
   67500    310.03865   -111405.31   -110541.21    -374.9627    174252.51  0.061176022 
   67600    308.66438   -111407.18   -110546.92   -618.86471    174173.55  0.061203757 
   67700    308.91691   -111413.87    -110552.9    750.98147    174059.49  0.061243861 
   67800    300.57867   -111395.25   -110557.52   -168.75683    173952.74  0.061281444 
   67900    306.54927   -111415.95   -110561.58   -140.96162    173860.77  0.061313864 
   68000    295.97035   -111392.09    -110567.2    103.94387    173800.12   0.06133526 
   68100    309.04826   -111434.02   -110572.68    248.03616    173740.82  0.061356194 
   68200     289.8985   -111386.99   -110579.03   -121.88787    173672.35  0.061380384 
   68300    296.39781   -111411.93   -110585.86   -698.31341    173596.54   0.06140719 
   68400    296.36478   -111418.46   -110592.48   -293.29175    173524.88  0.061432548 
   68500    304.44186   -111446.42   -110597.92    164.72671    173450.88  0.061458756 
   68600    294.62049   -111423.94   -110602.82   -364.81318     173401.1  0.061476399 
   68700    287.32415   -111409.21   -110608.42    924.07945    173347.94  0.061495254 
   68800    286.95936   -111410.91   -110611.13   -538.36905    173294.78  0.061514116 
   68900    281.59453   -111397.51   -110612.69   -22.380641    173211.46  0.061543707 
   69000    293.35197   -111426.63   -110609.04   -112.89111    173113.31  0.061578602 
   69100    295.29424   -111421.39   -110598.39    179.29486     173057.7  0.061598388 
   69200    289.61214   -111387.37   -110580.21   -522.69559    173024.87  0.061610078 
   69300    305.94805   -111412.04   -110559.34     174.6017    172976.34   0.06162736 
   69400    305.65489   -111395.17   -110543.29   -42.463504    172907.86  0.061651767 
   69500    318.70468      -111423   -110534.76    26.998917    172845.34   0.06167407 
   69600    316.19096   -111412.24      -110531    63.737956    172782.53  0.061696489 
   69700    304.01663   -111378.54   -110531.23    392.27779    172733.05  0.061714161 
   69800    317.39175   -111419.33   -110534.74    -18.72541     172704.5  0.061724363 
   69900     309.2793   -111403.29   -110541.31   -275.51945    172694.38  0.061727981 
   70000    308.01297   -111408.06   -110549.61     794.0057    172684.04  0.061731676 
   70100    299.11074   -111392.82   -110559.18    295.61005    172690.36  0.061729417 
   70200    303.85269   -111414.88   -110568.02    244.76782    172704.18  0.061724479 
   70300    299.12533   -111410.87   -110577.19   -107.79517    172720.23  0.061718742 
   70400    298.79199    -111418.4   -110585.65    -61.49492    172708.88  0.061722798 
   70500    307.61457   -111450.97   -110593.63    241.43158    172675.19  0.061734839 
   70600    287.27459   -111400.62   -110599.97   -473.12287    172654.89    0.0617421 
   70700    304.67633   -111453.32   -110604.17    39.484001    172652.74  0.061742867 
   70800    296.58735   -111435.11    -110608.5    99.044884    172677.89  0.061733877 
   70900    292.15965   -111425.24   -110610.97   -426.40805    172720.58  0.061718618 
   71000    302.54929   -111454.89   -110611.66     120.9297    172757.78  0.061705326 
   71100    298.77292   -111442.68   -110609.98    286.46993    172800.35  0.061690126 
   71200    294.77117   -111427.47   -110605.92   -75.324375    172843.23  0.061674822 
   71300    293.77416   -111418.94   -110600.18   -641.55932    172856.53  0.061670076 
   71400    289.41783   -111395.58   -110588.96   -45.729514    172838.76  0.061676417 
   71500    308.90474   -111429.47   -110568.53    102.54101    172818.64  0.061683596 
   71600    297.74222   -111375.49   -110545.67   -372.28118     172845.9   0.06167387 
   71700    300.07887   -111365.22   -110528.88    54.663619    172895.65  0.061656122 
   71800    305.55772   -111370.77   -110519.16   -82.908382    172930.96  0.061643534 
   71900    306.06365   -111367.94   -110514.92   -528.72807     172948.3  0.061637352 
   72000    302.47789   -111356.63   -110513.61   -17.527424    172945.37  0.061638397 
   72100    308.65916   -111375.01   -110514.75   -215.79325    172938.51  0.061640842 
   72200    308.00227   -111377.55   -110519.13    211.99434    172931.98  0.061643171 
   72300    311.33661   -111395.82   -110528.11    29.362628    172949.94  0.061636769 
   72400    296.56014    -111365.7   -110539.17   -123.05041    172969.94   0.06162964 
   72500    301.88684   -111391.74   -110550.36   -520.14488    172949.87  0.061636794 
   72600    312.73679   -111433.29   -110561.67    34.325705    172892.07  0.061657399 
   72700    307.17381   -111426.88   -110570.77    250.91263    172842.73  0.061675001 
   72800    296.74038   -111404.57   -110577.53   -105.22902    172823.59   0.06168183 
   72900    292.88135   -111398.99   -110582.72    172.13474    172815.97  0.061684552 
   73000    295.61228   -111409.69    -110585.8   -228.90633     172796.2  0.061691608 
   73100    292.19908   -111402.87   -110588.49   -231.65289     172737.7  0.061712501 
   73200    299.46566   -111423.07   -110588.44    501.10482    172670.93  0.061736364 
   73300    297.44316    -111417.5   -110588.51    431.08198    172619.57  0.061754734 
   73400    299.23475   -111422.45   -110588.47    96.742023    172579.56  0.061769049 
   73500    294.09698   -111406.29   -110586.62    345.03697    172527.02  0.061787861 
   73600    294.65043   -111405.25   -110584.04   -54.797672    172448.35  0.061816046 
   73700    302.03564   -111419.91   -110578.12   -236.57883    172343.83  0.061853538 
   73800    291.72187   -111383.72   -110570.68    138.82056    172238.43  0.061891386 
   73900     291.1411   -111372.82   -110561.39   -29.629305    172141.71   0.06192616 
   74000    307.25339   -111404.72   -110548.39   -169.55766    172059.72  0.061955671 
   74100    301.32032   -111373.65   -110533.86    126.72957     172005.5    0.0619752 
   74200    302.43847   -111361.57   -110518.66   -22.949205    171986.06  0.061982207 
   74300    316.90377   -111385.92   -110502.69    345.70661    171985.73  0.061982324 
   74400    307.99397   -111346.22   -110487.82   -237.95989    171987.69  0.061981618 
   74500    320.06532   -111368.52   -110476.48   -452.88033    171980.22   0.06198431 
   74600    317.82538   -111358.15   -110472.35    100.30246    171945.48  0.061996835 
   74700    313.85687   -111347.33   -110472.59    75.457168    171877.14  0.062021486 
   74800    325.08776   -111387.86   -110481.82    84.137428    171802.95  0.062048266 
   74900     309.0123   -111369.01   -110507.77   -432.87065     171727.3  0.062075602 
   75000    304.64714   -111387.61   -110538.54   -55.926527    171643.43  0.062105932 
   75100    291.39214   -111368.76   -110556.63    408.76249    171556.16  0.062137527 
   75200    299.05955    -111399.6    -110566.1    133.49726    171469.46  0.062168943 
   75300     297.6392   -111404.25   -110574.71    352.48852    171394.46  0.062196149 
   75400     295.1714   -111403.66      -110581   -305.60565    171304.38  0.062228856 
   75500    296.07676   -111410.94   -110585.75    371.35229    171205.69  0.062264725 
   75600    291.57324   -111403.14   -110590.51    532.67479     171118.9  0.062296307 
   75700    300.73748   -111431.35   -110593.18   -324.92281    171045.61  0.062322998 
   75800    301.68624   -111435.91    -110595.1   -264.94433    170955.86  0.062355717 
   75900    284.91923   -111389.18   -110595.09    139.94193    170853.07  0.062393231 
   76000    297.52321   -111421.63   -110592.41   -81.327536    170761.26  0.062426777 
   76100    299.39315   -111421.92   -110587.49    54.704212    170684.99  0.062454675 
   76200    299.43908   -111415.66    -110581.1   -12.696837    170617.73  0.062479295 
   76300    303.76429   -111419.82   -110573.21   -166.52537    170540.08  0.062507743 
   76400    300.88583   -111402.48   -110563.89   -510.54748    170447.61  0.062541653 
   76500    305.04775   -111404.31   -110554.12    231.31756    170347.83  0.062578285 
   76600    304.59248   -111393.11   -110544.19   -271.11584    170270.31  0.062606777 
   76700    319.74793    -111427.3   -110536.14   -158.40266    170227.03  0.062622694 
   76800    300.83149    -111369.1   -110530.67    150.54628    170187.05  0.062637405 
   76900    291.21209   -111339.78   -110528.16    232.57989    170160.16  0.062647305 
   77000    323.23455   -111427.58    -110526.7   -277.32591     170123.9  0.062660658 
   77100     316.3036   -111409.45   -110527.89   -361.31006    170062.82  0.062683163 
   77200    310.52056    -111401.2   -110535.76   -4.9739099    169982.96  0.062712613 
   77300    295.42288   -111370.94   -110547.58   -85.931598     169913.1  0.062738397 
   77400    292.35341   -111377.74   -110562.93    16.546935    169835.39  0.062767103 
   77500     295.7714   -111403.52   -110579.18    -280.2746    169738.37   0.06280298 
   77600    296.82859    -111420.3   -110593.02   -9.6988031    169638.92  0.062839798 
   77700    285.33332   -111396.47   -110601.23    6.5308997    169540.38  0.062876323 
   77800    290.41454    -111414.2    -110604.8    243.02002    169442.16  0.062912768 
   77900    290.23449   -111412.82   -110603.92    -390.9651    169352.47  0.062946088 
   78000    294.41465   -111420.88   -110600.33    67.441051    169261.48  0.062979925 
   78100    292.07061   -111409.77   -110595.75    227.76126    169141.86  0.063024465 
   78200    297.63283   -111419.91   -110590.39   -281.06949     169030.5  0.063065987 
   78300      293.311   -111403.17    -110585.7   -171.96466    168945.97  0.063097543 
   78400    303.15139   -111425.04   -110580.14   -218.18096    168855.08  0.063131504 
   78500     289.7645   -111382.58   -110574.99    195.06984    168725.68  0.063179923 
   78600    301.69473   -111409.32   -110568.48    53.529787    168607.68  0.063224139 
   78700     288.0232   -111365.61   -110562.87   -307.43594    168484.78  0.063270256 
   78800    308.84372   -111418.24   -110557.48   -65.452257    168371.68  0.063312757 
   78900    301.90772   -111397.03    -110555.6   -602.82231    168262.94  0.063353675 
   79000    306.80426   -111408.77   -110553.69    200.35745    168163.67  0.063391071 
   79100    302.06587   -111395.56   -110553.69   -350.18826    168078.23  0.063423296 
   79200    302.75284   -111400.48   -110556.69    -248.9467    167997.63  0.063453723 
   79300    307.71312   -111422.17   -110564.55    124.69914       167922  0.063482303 
   79400    297.05694   -111406.75   -110578.84      133.211    167815.46  0.063522608 
   79500    295.63881   -111423.59   -110599.63   -8.3513253    167668.46  0.063578299 
   79600    302.13486   -111462.99   -110620.92   -390.30249    167532.42  0.063629924 
   79700    283.89168   -111425.09   -110633.87    406.37329    167415.38  0.063674409 
   79800    290.10389   -111447.41   -110638.88    140.38754    167320.59   0.06371048 
   79900    288.87174   -111444.47   -110639.37   -202.52931    167235.21   0.06374301 
   80000    296.85303   -111463.19   -110635.85     -131.072    167147.59  0.063776422 
   80100    299.26509    -111465.3   -110631.23    405.46118    167066.17  0.063807503 
   80200    297.57882   -111453.21   -110623.84   -59.856814    167005.52  0.063830675 
   80300    303.13488    -111459.7   -110614.84   -251.86041    166969.69  0.063844375 
   80400     292.4374   -111420.54    -110605.5    592.56276    166958.94  0.063848483 
   80500    285.03557   -111389.75   -110595.34   -129.82632    166975.99  0.063841966 
   80600    301.62667   -111427.54   -110586.89   -323.51164    167002.54  0.063831817 
   80700    297.05205   -111407.57   -110579.67    36.907633     167029.9   0.06382136 
   80800    310.45782    -111437.6   -110572.34    64.594237    167041.07  0.063817091 
   80900    302.75417   -111409.72   -110565.93   -636.52999    167015.02  0.063827047 
   81000    297.19745   -111387.04   -110558.73     508.8526    166960.54  0.063847875 
   81100    298.34004    -111384.1   -110552.61    115.42491    166906.97  0.063868366 
   81200    302.39727   -111391.09   -110548.29    88.825873    166889.55  0.063875032 
   81300    313.89708   -111420.33   -110545.48   -305.75525    166881.85  0.063877978 
   81400    303.84665   -111392.08   -110545.24    61.003748    166879.44  0.063878903 
   81500    313.67071   -111420.99   -110546.77    298.35651    166865.14  0.063884377 
   81600     307.5023   -111405.27   -110548.25   -309.57143    166857.97  0.063887121 
   81700    296.73568   -111379.74   -110552.72    104.37953    166833.12  0.063896638 
   81800    298.04509    -111388.5   -110557.84   -173.59101    166793.59  0.063911779 
   81900    309.00251   -111424.62   -110563.42   -58.813025     166728.1  0.063936883 
   82000    304.87515   -111419.34   -110569.64   -109.44306     166640.9  0.063970341 
   82100    307.90103   -111434.55   -110576.41     292.9866     166552.2   0.06400441 
   82200    308.06564   -111441.76   -110583.16   -132.58046    166457.82    0.0640407 
   82300    296.66278   -111416.58   -110589.76    226.63397    166366.94  0.064075683 
   82400     288.6274   -111400.02    -110595.6    164.61569    166265.11  0.064114928 
   82500    290.53262   -111411.08   -110601.35    98.739892     166169.6  0.064151779 
   82600    298.74015   -111443.86   -110611.26   -440.11647    166061.31  0.064193611 
   82700    293.86457    -111449.3   -110630.29    556.07751    165939.98   0.06424055 
   82800    292.60764   -111467.06   -110651.55    154.91038    165822.67  0.064285996 
   82900    281.60513   -111450.59   -110665.74    265.77337    165708.78  0.064330177 
   83000    276.48538   -111443.26   -110672.68   -35.205808    165602.68  0.064371393 
   83100    286.54136   -111472.56   -110673.95    623.27332    165510.18   0.06440737 
   83200    291.42019   -111482.03   -110669.83   -78.582955    165404.88  0.064448374 
   83300    288.24901   -111464.49   -110661.12    462.47672    165278.58  0.064497621 
   83400    279.77296   -111427.33   -110647.59    350.04381    165157.69   0.06454483 
   83500    291.48528    -111442.8   -110630.41    1038.3821    165050.49  0.064586754 
   83600    293.97267   -111435.82    -110616.5    21.846912    164965.22  0.064620137 
   83700    296.18656   -111429.62   -110604.13    76.175237    164873.88  0.064655939 
   83800    299.29678   -111427.61   -110593.45   -339.47791    164795.13  0.064686833 
   83900    300.81385   -111424.56   -110586.18   -60.507372     164726.7  0.064713707 
   84000    296.14742   -111403.42   -110578.04    -201.6211    164672.01  0.064735201 
   84100    298.91617   -111403.43   -110570.34   -528.43708     164605.1  0.064761513 
   84200    306.32743    -111415.8   -110562.04    123.77103    164524.46  0.064793254 
   84300    300.88065   -111392.26   -110553.69    129.57429    164431.13   0.06483003 
   84400    307.42044   -111403.47   -110546.67      88.9794    164350.65  0.064861776 
   84500    296.13858   -111366.55   -110541.19   -181.27729    164300.72  0.064881487 
   84600    306.88195   -111392.97   -110537.67    298.53762    164285.37  0.064887552 
   84700    312.09574   -111406.21   -110536.38   -499.51289    164298.76  0.064882264 
   84800    295.49736   -111359.91   -110536.34    246.35713    164306.75  0.064879109 
   84900    305.18918    -111390.2   -110539.62    90.786166    164308.81  0.064878294 
   85000    297.47806   -111375.58   -110546.49   -261.85747    164311.59  0.064877196 
   85100     301.8554   -111397.61   -110556.32    266.46849    164304.05  0.064880172 
   85200    296.99479   -111397.37   -110569.62   -419.08507     164274.7  0.064891767 
   85300    304.66654    -111435.5   -110586.38    103.83491    164232.69  0.064908365 
   85400    290.63333    -111412.9   -110602.89   -733.41127    164161.98  0.064936324 
   85500    293.57519   -111433.03   -110614.82   -104.86821    164062.71  0.064975614 
   85600     297.4351   -111451.13   -110622.16    396.28195    163974.29  0.065010652 
   85700    288.71527    -111429.5   -110624.83   -242.58402    163889.53  0.065044273 
   85800    297.86492   -111454.99   -110624.82    174.30446    163826.95  0.065069118 
   85900    295.37004   -111445.47   -110622.25    147.47348    163796.02  0.065081406 
   86000    296.30849    -111444.6   -110618.77   -254.16454    163766.03  0.065093325 
   86100    295.38735   -111437.83   -110614.57    187.39848    163705.08  0.065117558 
   86200    296.94372   -111435.24   -110607.64   -34.178784    163620.32  0.065151294 
   86300    302.09753   -111441.42   -110599.46   -80.200252    163522.85  0.065190126 
   86400    291.40932   -111403.61   -110591.43    13.611897    163414.08  0.065233519 
   86500    295.92406    -111409.3   -110584.54   -525.48008    163318.84   0.06527156 
   86600    293.73587   -111400.22   -110581.56    114.98222    163213.18  0.065313814 
   86700    297.06866   -111404.43   -110576.48    13.306101    163114.75  0.065353226 
   86800    311.65716   -111439.23   -110570.63    -16.10774    163035.73  0.065384904 
   86900     299.1068   -111400.72   -110567.09    120.81875    162983.07   0.06540603 
   87000    294.83732   -111385.88   -110564.15   -167.95734    162939.09  0.065423685 
   87100    303.49098    -111407.7   -110561.86   -95.224138    162857.99  0.065456261 
   87200    287.76598   -111361.38   -110559.36    160.98144    162756.95    0.0654969 
   87300    298.44444   -111388.96   -110557.18   -286.22405    162673.09  0.065530663 
   87400     301.2411   -111396.88    -110557.3   -376.14912    162594.89  0.065562181 
   87500    317.50665   -111442.92   -110558.02    -247.7663    162493.33  0.065603157 
   87600    304.77992   -111409.97   -110560.53   -126.30744    162382.69  0.065647855 
   87700    300.23129   -111401.04   -110564.28   -218.69425    162296.23  0.065682829 
   87800    296.04096   -111393.07   -110567.99    171.99598    162239.95  0.065705614 
   87900    299.21375   -111405.82   -110571.89   -412.64672     162175.5  0.065731727 
   88000    300.13484   -111414.38   -110577.88   -198.34146    162064.56  0.065776721 
   88100    295.05066   -111404.82   -110582.49   -98.903055    161936.77  0.065828628 
   88200    296.71622   -111415.32   -110588.35   -93.622526    161796.94   0.06588552 
   88300    304.46899   -111443.07    -110594.5   -279.27726    161673.77  0.065935715 
   88400    297.59587   -111430.18   -110600.76    277.10383    161548.87  0.065986689 
   88500    297.50283   -111435.34   -110606.18   -172.02188    161432.24  0.066034363 
   88600      301.755   -111451.23   -110610.23   -114.16488    161326.27  0.066077741 
   88700    285.06383   -111406.86   -110612.37    125.26752    161226.21  0.066118751 
[...]
  978700    305.67279   -111616.95   -110765.02    569.51755    13664.375   0.78013632 
  978800    302.48901   -111616.84   -110773.78    6317.1645    13671.492   0.77973019 
  978900    293.30745   -111601.28   -110783.81   -4423.2802    13680.192   0.77923431 
  979000    295.79184   -111620.55   -110796.17    6435.0955     13688.19   0.77877903 
  979100    295.75649      -111631   -110806.71   -1301.5781    13695.565   0.77835967 
  979200    296.38351   -111641.51   -110815.47    2727.4463    13700.239   0.77809413 
  979300    299.53449   -111655.09   -110820.27    2297.6343    13701.815   0.77800464 
  979400    284.79142   -111616.34   -110822.61    3092.2304    13701.231    0.7780378 
  979500    286.49332   -111621.23   -110822.76    1552.7214    13697.977    0.7782226 
  979600    297.49884   -111649.52   -110820.37   -927.32663    13691.996   0.77856254 
  979700    303.40494   -111660.08   -110814.48   -386.59118    13685.401   0.77893775 
  979800    285.50007    -111601.5    -110805.8    2970.1316    13677.796   0.77937087 
  979900    302.31349   -111633.81   -110791.25   -3420.6518    13670.096   0.77980984 
  980000    301.04764    -111612.7   -110773.66    -2103.093    13662.157   0.78026298 
  980100    292.17245   -111570.39   -110756.09    469.36742    13655.261   0.78065701 
  980200    310.48355   -111608.81   -110743.47   -1343.4322    13647.178   0.78111937 
  980300    308.05961   -111596.64   -110738.06    4593.4132    13638.285   0.78162871 
  980400    294.45191   -111557.16   -110736.51   -4550.5645    13631.746   0.78200367 
  980500    309.24814   -111598.55   -110736.66   -2368.8743    13627.915   0.78222351 
  980600    308.37846   -111597.46   -110737.99    4712.3378    13627.218   0.78226349 
  980700    310.55459   -111608.81   -110743.28   -7865.1818    13629.513   0.78213179 
  980800     300.3172   -111588.05   -110751.05    3154.4738    13631.149   0.78203791 
  980900    298.54986   -111592.91   -110760.83   -3305.9584    13632.544   0.78195789 
  981000    302.48788   -111613.71   -110770.66   -5317.0133    13636.045   0.78175712 
  981100    302.93326   -111623.27   -110778.98    9741.8184    13641.174   0.78146317 
  981200     310.1192   -111651.23   -110786.91   -2137.7896    13650.077    0.7809535 
  981300    295.37226   -111618.35   -110795.13    4418.3261    13659.673   0.78040488 
  981400    303.31671   -111647.24   -110801.88   -5052.2921    13670.066   0.77981154 
  981500    303.59801   -111655.26   -110809.11    -481.2032    13679.854    0.7792536 
  981600    292.38608   -111629.91   -110815.01   -877.60497    13689.099   0.77872731 
  981700    294.26565   -111638.16   -110818.03   -6230.5211    13699.235   0.77815114 
  981800    289.66894      -111626   -110818.68   -1887.1115    13708.724    0.7776125 
  981900    297.67559   -111646.18   -110816.55    3305.9687    13717.419   0.77711962 
  982000    295.28918   -111632.47   -110809.49    -3890.856    13725.638   0.77665429 
  982100    279.38516   -111575.75   -110797.09    1391.3997    13733.846   0.77619011 
  982200    290.20561   -111588.12    -110779.3    573.60957    13740.183   0.77583215 
  982300    304.31357   -111608.08   -110759.94   -875.12879    13745.723   0.77551941 
  982400    313.28357   -111618.34    -110745.2    900.17482    13750.704   0.77523854 
  982500    310.67682   -111604.44   -110738.56   -5966.2708    13756.316   0.77492225 
  982600    299.78813   -111572.02   -110736.49   -3592.8625     13760.49   0.77468719 
  982700    315.32096   -111615.48   -110736.67    -3621.675    13762.459   0.77457637 
  982800    304.79532   -111588.33   -110738.84     5168.433      13763.2   0.77453468 
  982900    310.73048   -111608.61   -110742.58    2723.7864    13764.356    0.7744696 
  983000    300.37852    -111585.8   -110748.63   -5527.0586    13767.888   0.77427093 
  983100    309.95788   -111619.04   -110755.17   -1856.8068    13770.935   0.77409963 
  983200    299.39492   -111598.03    -110763.6    1069.6157    13772.444   0.77401479 
  983300    292.25989   -111586.94   -110772.39   -4261.0721    13770.982   0.77409696 
  983400    304.62879   -111628.75   -110779.73    8527.9379    13769.531   0.77417852 
  983500    298.94725   -111618.62   -110785.44    2705.3136    13769.477   0.77418159 
  983600    293.10092   -111610.73   -110793.84    8175.7525    13769.499   0.77418034 
  983700    305.33599   -111652.31   -110801.32    1516.1327     13768.01   0.77426406 
  983800    291.89777   -111622.26   -110808.72   -1531.8857    13764.399   0.77446717 
  983900    292.82339   -111629.92   -110813.81   -3869.8215    13758.202     0.774816 
  984000    286.79631   -111618.14   -110818.82       376.47      13750.6    0.7752444 
  984100    292.25971   -111635.15   -110820.61   -946.99856    13741.668    0.7757483 
  984200    290.74989   -111630.82   -110820.49    1398.5782    13731.375   0.77632977 
  984300    299.56263   -111655.09    -110820.2     3696.689    13720.125   0.77696635 
  984400    296.77854   -111644.79   -110817.65     4341.167    13709.584   0.77756373 
  984500    297.77987   -111639.54   -110809.61    3690.6224      13702.2   0.77798274 
  984600     287.3164   -111597.11   -110796.35   -3213.3733    13696.535   0.77830454 
  984700       304.44   -111629.99    -110781.5    365.16436    13692.518   0.77853288 
  984800    300.83069   -111607.53    -110769.1   -3073.4493    13688.701   0.77874999 
  984900    310.65888   -111623.99   -110758.16    -1282.163    13683.617   0.77903929 
  985000    308.64158   -111610.73   -110750.53   -3493.5321     13678.54   0.77932846 
  985100    303.29544   -111591.52   -110746.22   -212.21525    13674.624    0.7795516 
  985200    309.94894   -111607.53   -110743.68   -1665.3559    13672.554   0.77966966 
  985300    314.29219   -111620.55    -110744.6   -2577.4353    13671.313   0.77974045 
  985400     304.3418   -111597.27   -110749.05    -822.0545    13670.664   0.77977741 
  985500    308.86283   -111617.81   -110756.99    6396.7252    13669.874    0.7798225 
  985600    303.73508   -111614.18   -110767.65    2658.8595     13669.91   0.77982045 
  985700    302.57507   -111623.29      -110780   -9034.0606    13669.968   0.77981713 
  985800    294.24491   -111612.29   -110792.22    7367.4357    13670.676   0.77977673 
  985900    300.43828   -111638.34   -110801.01    -1749.733    13672.655   0.77966389 
  986000    290.73858   -111618.45   -110808.14    1800.4144      13675.7   0.77949032 
  986100     299.3379    -111645.7   -110811.42    9227.7143    13681.063   0.77918471 
  986200    295.87727   -111638.22    -110813.6    2615.7123    13688.471   0.77876302 
  986300    289.63273   -111620.15   -110812.93   -1851.8735    13694.666   0.77841075 
  986400    299.77538   -111647.26   -110811.77   -7782.3652    13697.495   0.77824999 
  986500    303.49371   -111654.51   -110808.65     23.01701    13697.684   0.77823925 
  986600    290.08999   -111614.48   -110805.99    7913.8766    13697.607    0.7782436 
  986700    292.46103   -111619.03   -110803.93   -3531.0479    13699.546   0.77813348 
  986800     307.3687   -111657.71   -110801.05   -4206.9977    13701.334   0.77803196 
  986900    299.72089   -111632.89   -110797.55    379.72288    13702.498   0.77796587 
  987000     302.5054    -111638.2    -110795.1    1486.6595    13702.551    0.7779628 
  987100    301.36755   -111634.25   -110794.32    1228.6424    13700.403   0.77808479 
  987200    301.04645   -111632.59   -110793.56   -593.19242    13697.767   0.77823452 
  987300    289.31264   -111598.62   -110792.29   -1999.2071    13695.166   0.77838232 
  987400    286.31202    -111588.6   -110790.63    5654.4309    13694.261   0.77843379 
  987500    299.31329   -111622.64   -110788.44   -2934.1453    13693.457    0.7784795 
  987600     297.8048   -111614.67   -110784.67    3029.9282    13692.129   0.77855497 
  987700    308.13732   -111638.91   -110780.11    2601.5437    13689.032   0.77873111 
  987800    306.75211   -111630.62   -110775.68   -2024.5136    13684.814   0.77897117 
  987900    307.58708   -111629.08   -110771.82    7796.1812     13679.15    0.7792937 
  988000    310.82558   -111635.31   -110769.02    -4926.019    13674.722   0.77954606 
  988100    299.55691   -111602.99   -110768.11     2678.342    13670.186   0.77980468 
  988200     301.7782    -111608.6   -110767.52    2321.2999    13665.986   0.78004439 
  988300    295.58393   -111592.28   -110768.47    2995.6147    13661.238   0.78031549 
  988400    305.82925   -111622.63   -110770.27   -1581.9738    13656.023   0.78061347 
  988500    299.46824   -111609.03    -110774.4   -4155.3599    13649.851   0.78096644 
  988600    297.06075    -111610.5   -110782.58   -3731.8757    13641.496   0.78144472 
  988700    300.13066   -111629.95   -110793.47    -3466.637    13631.485   0.78201863 
  988800    302.49146   -111649.19   -110806.13   -2101.4813    13620.166   0.78266853 
  988900    287.41658   -111618.24    -110817.2    -2482.734    13610.473   0.78322592 
  989000    294.45367   -111646.38   -110825.72    181.23405    13601.238    0.7837577 
  989100    287.48701   -111633.28   -110832.03    -582.8593    13592.158   0.78428127 
  989200    286.82982   -111635.18   -110835.76   -645.78594    13581.354   0.78490521 
  989300    293.22265    -111653.4   -110836.18    3133.4081    13570.175   0.78555179 
  989400     294.9026   -111653.74   -110831.83    3236.1586     13558.61   0.78622182 
  989500    292.59462   -111640.03   -110824.56   -1534.7877    13547.811   0.78684852 
  989600    287.92987   -111614.69   -110812.21    4553.4704    13537.635   0.78744003 
  989700    293.51622      -111615   -110796.95    7229.7014    13528.797   0.78795442 
  989800    294.30348   -111601.65   -110781.41   -484.44627    13519.837   0.78847661 
  989900    287.89078   -111572.85   -110770.48    2795.6171      13511.9   0.78893975 
  990000    305.97866   -111615.84   -110763.06   -6467.4995    13506.027   0.78928287 
  990100    300.02858   -111596.22   -110760.03    2548.0817    13500.952   0.78957955 
  990200     315.1921   -111638.68   -110760.22    909.70452    13495.878   0.78987636 
  990300     314.8927   -111639.82    -110762.2    -3422.357    13491.646   0.79012414 
  990400    306.84571   -111620.65   -110765.45    3192.0122    13488.024    0.7903363 
  990500    301.35216   -111609.12   -110769.23   -937.78587    13485.582   0.79047944 
  990600    293.04667   -111591.16   -110774.42   -6548.2089    13480.513   0.79077666 
  990700     293.9016   -111599.05   -110779.93     -3497.81    13473.802   0.79117053 
  990800    307.27256   -111641.35   -110784.96    916.01191    13467.364   0.79154878 
  990900    287.92038   -111592.52   -110790.07     4192.894    13461.007   0.79192257 
  991000    298.08826   -111628.24   -110797.45   -2461.1804     13454.93   0.79228025 
  991100    291.92912    -111616.5   -110802.88    -7167.839    13448.505   0.79265876 
  991200    301.97854   -111649.85   -110808.22    4158.6567    13440.716   0.79311813 
  991300    292.28309   -111628.62   -110814.01    1645.6973    13431.932   0.79363678 
  991400    295.95728   -111643.69   -110818.84   -461.13737    13421.349    0.7942626 
  991500    291.91007   -111636.55   -110822.98   -4675.0545     13409.31   0.79497569 
  991600    281.80306   -111612.17   -110826.77    3507.4455    13397.935   0.79565065 
  991700    294.26861   -111646.98   -110826.83     3094.189    13388.669    0.7962013 
  991800     295.0612   -111646.35      -110824    2407.8582    13380.346   0.79669654 
  991900    287.93202   -111620.21   -110817.72   -4810.7652    13370.924   0.79725794 
  992000    287.35967   -111608.81   -110807.92   -97.290535    13359.867   0.79791775 
  992100    290.68413   -111605.56    -110795.4    3537.8934    13346.307   0.79872846 
  992200    306.61007   -111636.09   -110781.55    2057.7859    13332.406   0.79956126 
  992300    305.22913   -111619.39    -110768.7   -4889.4461    13319.889   0.80031264 
  992400    309.57692   -111622.44   -110759.63    -2080.414    13305.881   0.80115518 
  992500    293.69361   -111572.19   -110753.65   -3328.7063    13291.029   0.80205043 
  992600    301.09867   -111588.51   -110749.33   -6950.2247     13275.12   0.80301159 
  992700    307.17997   -111604.53    -110748.4   -3417.5409    13257.008   0.80410868 
  992800    303.94116   -111595.44   -110748.34    846.94384    13238.544   0.80523019 
  992900    308.50989   -111609.47   -110749.64   -3765.7425    13221.009   0.80629819 
  993000    304.38364   -111601.35   -110753.02    524.26875    13204.634   0.80729808 
  993100    308.75101   -111619.43   -110758.93   -8612.5928    13188.216   0.80830306 
  993200    307.82524   -111624.12    -110766.2   -1782.3611    13170.417   0.80939541 
  993300    305.93795   -111631.27   -110778.61    9695.3046    13152.446   0.81050134 
  993400    295.85145    -111616.7   -110792.14   -7939.2575     13136.75   0.81146975 
  993500    288.33693   -111609.13   -110805.52   -2757.1158    13120.948   0.81244706 
  993600    289.57586    -111621.2   -110814.13    1365.2816    13104.766   0.81345024 
  993700    291.42914   -111632.82   -110820.59    2553.5846    13089.752   0.81438332 
  993800    296.00249    -111648.7   -110823.73    4108.9787    13075.585   0.81526565 
  993900     292.5789   -111639.65   -110824.21    -3098.307    13062.604   0.81607581 
  994000    303.82627   -111668.48    -110821.7    7150.1717    13048.018   0.81698807 
  994100    291.42404   -111628.59   -110816.37    10353.162    13032.477   0.81796234 
  994200     309.7906   -111667.86   -110804.46   -31.467362    13018.745   0.81882509 
  994300     311.0681   -111650.68   -110783.71   -5190.0492      13006.2   0.81961493 
  994400    308.40138   -111620.29   -110760.76   -1839.1815    12993.809   0.82039649 
  994500     317.4313   -111629.01   -110744.32     -1847.36    12979.595   0.82129494 
  994600    309.40238   -111598.11   -110735.79   -3016.9442    12964.833   0.82223008 
  994700      305.737   -111583.48   -110731.38    1270.5043    12950.197    0.8231593 
  994800      300.277   -111567.77   -110730.88   -4653.4471    12937.231    0.8239843 
  994900     303.6343   -111579.06   -110732.81   -8564.9761    12927.621   0.82459686 
  995000    309.26257    -111598.8   -110736.86   -1780.9496    12920.087    0.8250777 
  995100    306.82603    -111598.1   -110742.96    789.23368     12913.64    0.8254896 
  995200    302.89152   -111596.79   -110752.61   -5255.5804     12906.38   0.82595396 
  995300    309.19108   -111624.81   -110763.07   -6000.0793    12898.135   0.82648189 
  995400    300.57643   -111611.53    -110773.8    4414.0338    12888.914   0.82707321 
  995500    291.80899   -111596.75   -110783.46     -1611.32    12882.045   0.82751423 
  995600    295.73393   -111615.27   -110791.05   -2022.3746    12876.053   0.82789928 
  995700    302.18155   -111638.66   -110796.46    729.35626    12870.857   0.82823352 
  995800    295.77175   -111625.84   -110801.51   -1329.6589     12866.68   0.82850242 
  995900    299.51218   -111637.11   -110802.35    28.126677     12863.35   0.82871686 
  996000     292.4757   -111618.72   -110803.57   -6487.2639    12859.642   0.82895586 
  996100    301.20818   -111643.66   -110804.17   -5346.0865    12854.293   0.82930076 
  996200    307.11212   -111659.79   -110803.85    -117.4501    12846.705   0.82979061 
  996300    293.92801   -111622.79   -110803.59   -416.77527    12838.677   0.83030949 
  996400    297.34641    -111629.7   -110800.98     4773.545    12832.555   0.83070562 
  996500    290.19945   -111605.95   -110797.15    2475.1447    12826.699   0.83108485 
  996600    295.42253    -111615.3   -110791.94   -5515.7614    12821.992   0.83138993 
  996700    301.02829   -111625.81   -110786.83      926.324    12817.008   0.83171327 
  996800    301.79797    -111621.8   -110780.67    6788.4859    12809.813   0.83218041 
  996900    310.93395   -111641.78   -110775.19    2319.2292    12800.376    0.8327939 
  997000    301.64012    -111612.8   -110772.11    6324.2398    12789.454   0.83350509 
  997100    305.69913   -111620.44   -110768.44   -9729.7766    12781.279   0.83403823 
  997200    301.20808   -111602.82   -110763.34   -2599.1584    12775.374   0.83442375 
  997300    302.48098   -111595.64   -110752.61   -3890.5169    12769.098   0.83483387 
  997400    305.75526   -111585.72   -110733.56   -2668.8419     12763.24   0.83521704 
  997500    316.23373   -111595.65   -110714.29    936.30613    12757.206    0.8356121 
  997600     309.0016   -111562.26   -110701.05    8496.5464    12753.304   0.83586771 
  997700     311.1931   -111560.41    -110693.1    1208.9663    12751.607   0.83597899 
  997800    323.72919   -111594.54   -110692.29   -4641.9953    12751.794   0.83596669 
  997900    314.00414   -111572.84    -110697.7   -2545.3135    12752.002   0.83595311 
  998000    306.31608   -111562.23   -110708.51     6627.063    12750.932   0.83602322 
  998100    298.15603   -111553.53   -110722.55    1100.3982    12748.491   0.83618331 
  998200    312.39075    -111608.3   -110737.65   -1201.8352    12745.243   0.83639639 
  998300     307.2918   -111608.15   -110751.71   -4243.5609    12743.201    0.8365304 
  998400    310.46099   -111629.53   -110764.26    10648.837    12741.669   0.83663098 
  998500    296.01875   -111598.23   -110773.21   -621.83921    12744.338    0.8364558 
  998600    301.87926   -111622.49   -110781.14    4696.1502    12748.512    0.8361819 
  998700    300.87037   -111626.36   -110787.82   -3950.6951    12751.979   0.83595457 
  998800    309.17563   -111655.78   -110794.09    5411.1458    12751.883   0.83596091 
  998900    299.56738   -111635.22   -110800.31    2385.7598    12753.156   0.83587744 
  999000    299.68494   -111641.76   -110806.52   -2496.1768    12754.404   0.83579567 
  999100    289.89467   -111619.19   -110811.24   -1924.0497    12756.813    0.8356378 
  999200    290.33265    -111622.6   -110813.43   -3086.4494    12759.148   0.83548491 
  999300    294.37766   -111634.24   -110813.79   -765.91803    12760.663   0.83538568 
  999400    296.92038   -111639.06   -110811.52   -1299.9169    12763.364   0.83520894 
  999500    293.11614   -111622.89   -110805.96    1832.7024    12765.748   0.83505292 
  999600    303.88708   -111643.67   -110796.72   -3706.7136    12765.864   0.83504534 
  999700    296.80103   -111610.93   -110783.73   -5071.9091     12763.58   0.83519478 
  999800    304.41786   -111615.31   -110766.88   -1044.1278    12762.837   0.83524337 
  999900    297.32802   -111579.91   -110751.24    5190.9424    12764.625   0.83512644 
 1000000    306.07041   -111592.18   -110739.14    3619.2192    12768.125   0.83489748 
Loop time of 72618.3 on 1 procs for 1000000 steps with 936 atoms

Performance: 0.297 ns/day, 80.687 hours/ns, 13.771 timesteps/s
100.0% CPU use with 1 MPI tasks x no OpenMP threads

MPI task timing breakdown:
Section |  min time  |  avg time  |  max time  |%varavg| %total
---------------------------------------------------------------
Pair    | 59416      | 59416      | 59416      |   0.0 | 81.82
Neigh   | 151.54     | 151.54     | 151.54     |   0.0 |  0.21
Comm    | 14.269     | 14.269     | 14.269     |   0.0 |  0.02
Output  | 1.4975     | 1.4975     | 1.4975     |   0.0 |  0.00
Modify  | 13034      | 13034      | 13034      |   0.0 | 17.95
Other   |            | 1.025      |            |       |  0.00

Nlocal:    936 ave 936 max 936 min
Histogram: 1 0 0 0 0 0 0 0 0 0
Nghost:    7357 ave 7357 max 7357 min
Histogram: 1 0 0 0 0 0 0 0 0 0
Neighs:    439511 ave 439511 max 439511 min
Histogram: 1 0 0 0 0 0 0 0 0 0

Total # of neighbors = 439511
Ave neighs/atom = 469.563
Neighbor list builds = 10000
Dangerous builds not checked

Please see the log.cite file for references relevant to this simulation

Total wall time: 20:10:18
