LAMMPS (09 Jan 2020)
package omp 0
WARNING: OpenMP support not enabled during compilation; using 1 thread only. (../fix_omp.cpp:125)
units			real
atom_style		charge
read_data d700000_lmps.dat
  orthogonal box = (-15 -15 -15) to (50 50 50)
  1 by 1 by 1 MPI processor grid
  reading atoms ...
  936 atoms
  read_data CPU = 0.000526905 secs
reset_timestep		0

pair_style              reax/c lmp_control lgvdw yes
pair_coeff              * * ffield C H O N

neighbor		2.5 bin
neigh_modify		delay 0 every 5 check no

fix			qeq all qeq/reax 1 0.0 10.0 1e-6 reax/c
fix			bonds all reax/c/bonds 500 bonds.reaxc
fix			npt all npt temp 300 300 100 iso 1.0 1.0 2000
fix 1 all reax/c/species 10 10 100 species.out cutoff 1 4 0.25
WARNING: Resetting reneighboring criteria for fix reax/c/species (../fix_reaxc_species.cpp:97)


thermo			100
thermo_style            custom step temp pe etotal press vol density
thermo_modify           flush yes

timestep		0.25

dump			1 all custom 1000 dump/dump.reax.npt.* id type xu yu zu
restart			500 restart.npt300 restart.npt300
run 1000000
Last active /omp style is pair_style reax/c/omp
Neighbor list info ...
  update every 100 steps, delay 0 steps, check no
  max neighbors/atom: 2000, page size: 100000
  master list distance cutoff = 12.5
  ghost atom cutoff = 12.5
  binsize = 6.25, bins = 11 11 11
  2 neighbor lists, perpetual/occasional/extra = 2 0 0
  (1) pair reax/c/omp, perpetual
      attributes: half, newton off, ghost, omp
      pair build: half/bin/newtoff/ghost/omp
      stencil: half/ghost/bin/3d/newtoff
      bin: standard
  (2) fix qeq/reax/omp, perpetual, copy from (1)
      attributes: half, newton off, ghost
      pair build: copy
      stencil: none
      bin: none
Per MPI rank memory allocation (min/avg/max) = 54.26 | 54.26 | 54.26 Mbytes
Step Temp PotEng TotEng Press Volume Density 
       0            0   -111429.25   -111429.25   -79.618471       274625  0.038816842 
     100    147.22626   -111825.33      -111415     286.2222    274612.35  0.038818631 
     200    172.13318   -111873.04    -111393.3    58.744024    274603.76  0.038819845 
     300    182.12467   -111877.83   -111370.24    175.54875    274595.85  0.038820963 
     400    178.52613   -111839.04   -111341.47   -354.28308    274550.96   0.03882731 
     500    179.99474   -111810.73   -111309.08   -24.101104    274442.51  0.038842654 
     600    198.50923   -111829.16   -111275.91    44.141538    274320.08  0.038859989 
     700    195.90603   -111787.05   -111241.04    -507.9553    274186.68  0.038878895 
     800      198.038   -111756.87   -111204.93    172.31851    273991.12  0.038906646 
     900    211.45384   -111755.43    -111166.1    62.596521    273785.24  0.038935902 
    1000    215.33961      -111727   -111126.84   -29.184451    273602.36  0.038961927 
    1100    225.32653   -111714.88   -111086.88    160.81247    273419.55  0.038987977 
    1200     234.6098   -111699.75   -111045.88    148.93502    273278.95  0.039008037 
    1300    242.28151   -111679.81   -111004.56   -54.009971     273180.9  0.039022038 
    1400    251.29827   -111663.43   -110963.05    -73.47926    273156.59  0.039025511 
    1500    256.48615   -111637.43   -110922.59     267.9905    273217.86   0.03901676 
    1600    256.88808   -111597.79   -110881.83    112.13428    273307.54  0.039003956 
    1700    266.63856   -111585.24    -110842.1    33.407392     273385.4  0.038992848 
    1800    266.37331   -111545.34   -110802.94    -126.7001    273469.12  0.038980911 
    1900    272.22518   -111522.87   -110764.16   -255.99328    273534.31   0.03897162 
    2000     280.9649   -111509.98   -110726.92   -188.23208    273557.55  0.038968309 
    2100    300.12751   -111528.88    -110692.4   -327.69125    273549.64  0.038969437 
    2200    305.73623   -111512.92   -110660.81   -347.51989    273583.26  0.038964647 
    2300    303.21476   -111478.24   -110633.16    12.861268    273645.45  0.038955793 
    2400    304.79268   -111458.31   -110608.84    -180.8658    273735.66  0.038942955 
    2500    305.91862   -111441.69   -110589.08     16.52281    273828.72   0.03892972 
    2600    308.96946   -111434.39   -110573.28     36.14269    273978.12  0.038908491 
    2700    309.80297   -111424.54    -110561.1   -22.018357    274181.65  0.038879608 
    2800    308.34146   -111412.67   -110553.31   -183.29434     274431.6  0.038844197 
    2900    316.30317   -111430.98   -110549.42   -29.637729    274683.22  0.038808616 
    3000    325.54186   -111457.65   -110550.34   -385.11358     274898.2  0.038778265 
    3100    314.22977   -111433.23   -110557.45     113.3949    275121.34  0.038746814 
    3200    308.99009   -111429.61   -110568.44    26.452889    275363.46  0.038712745 
    3300    308.03627   -111439.91   -110581.39   -389.25053    275558.64  0.038685324 
    3400    305.36655   -111447.66   -110596.58   -35.793193    275668.46  0.038669913 
    3500    293.41238   -111429.37   -110611.61   -18.854999    275725.74   0.03866188 
    3600    292.78544   -111442.66   -110626.65   -269.17578     275779.2  0.038654385 
    3700    284.98909   -111433.24   -110638.96    163.77947    275846.81  0.038644911 
    3800    304.58513   -111497.65   -110648.75    35.935166     275931.2  0.038633092 
    3900    298.38663   -111488.54   -110656.92   -101.87805    276016.38  0.038621169 
    4000    284.65686   -111455.52   -110662.17    32.627602    276054.94  0.038615775 
    4100    291.34626   -111477.28   -110665.29    317.05231    276019.41  0.038620746 
    4200    294.46085   -111487.09   -110666.41    260.29786       275972   0.03862738 
    4300    300.56502   -111502.98   -110665.29    5.2562686    275911.63  0.038635832 
    4400    286.40427   -111461.51   -110663.28    60.500529    275870.17  0.038641639 
    4500    292.90222    -111474.3   -110657.96   -86.711107    275821.28  0.038648487 
    4600    292.91317    -111467.3   -110650.93   -38.623041    275784.99  0.038653573 
    4700    296.00825   -111466.37   -110641.38    222.38704    275732.34  0.038660954 
    4800     291.6528   -111442.45    -110629.6    403.21987    275705.04  0.038664782 
    4900     311.8134   -111485.08   -110616.03   -485.68829    275702.93  0.038665078 
    5000    301.44536   -111444.88   -110604.73   -317.62925    275698.44  0.038665708 
    5100    302.82486   -111438.67   -110594.68    29.920643    275756.17  0.038657613 
    5200    312.26386      -111457    -110586.7     20.49627    275868.57  0.038641863 
    5300    309.48669    -111443.3   -110580.74    38.075203    275999.33  0.038623555 
    5400    294.24015   -111397.02   -110576.95    -78.18881    276148.32  0.038602717 
    5500    309.99648   -111438.89   -110574.91   -147.38653    276305.42  0.038580768 
    5600    313.82585   -111449.59   -110574.94   -56.005101    276452.62  0.038560225 
    5700    314.44358   -111454.96   -110578.59   -127.28698    276588.74  0.038541249 
    5800    306.82795    -111441.5   -110586.35    103.48846    276752.28  0.038518474 
    5900    303.67012   -111442.08   -110595.73   -108.03244    276927.88  0.038494048 
    6000    299.03551   -111439.05   -110605.62   -252.99945    277058.86  0.038475851 
    6100    289.81021   -111422.84   -110615.13     19.33375    277131.82  0.038465721 
    6200    298.55985    -111458.3    -110626.2    112.72482    277175.96  0.038459595 
    6300     307.2629   -111493.38   -110637.02    222.72302    277213.55  0.038454381 
    6400    297.17209   -111477.44    -110649.2    136.88573    277230.99  0.038451962 
    6500    298.98452   -111490.65   -110657.36   -415.13416    277230.49  0.038452031 
    6600    285.23924   -111459.38    -110664.4    264.61341    277224.72  0.038452832 
    6700    286.89641   -111466.57   -110666.97    100.91913    277228.33  0.038452331 
    6800    288.53729   -111470.72   -110666.55    130.07887    277233.03  0.038451678 
    6900    296.83554   -111491.79   -110664.49    298.38906    277230.72     0.038452 
    7000    296.86617   -111488.58   -110661.19    43.794634    277275.84  0.038445742 
    7100    320.37924   -111546.89   -110653.97    113.35573    277384.88  0.038430629 
    7200    302.03208   -111487.95   -110646.17   -35.798651    277524.48  0.038411297 
    7300    290.75112    -111447.8   -110637.46    35.580836    277663.22  0.038392105 
    7400    292.76264   -111444.57   -110628.62   -316.10343    277745.64  0.038380711 
    7500    303.47301   -111464.37   -110618.57   -146.16988    277723.31  0.038383797 
    7600    304.21566   -111456.69   -110608.82    118.77563    277650.76  0.038393828 
    7700    299.81761    -111435.3   -110599.69    300.05355    277508.62  0.038413493 
    7800    299.28929   -111425.34    -110591.2    300.86994    277402.24  0.038428224 
    7900    306.99732   -111437.61   -110581.99   -114.66381    277312.19  0.038440702 
    8000    308.06587    -111434.3    -110575.7    -148.1284    277201.39  0.038456068 
    8100    304.69144   -111421.14   -110571.94   -103.17971    277067.87    0.0384746 
    8200    314.30941   -111445.92   -110569.92    51.421665    276952.85  0.038490578 
    8300    304.18101    -111420.9   -110573.13   -179.81276    276860.88  0.038503365 
    8400    308.28035   -111439.08   -110579.89   -333.91047    276751.69  0.038518556 
    8500    313.97691   -111464.82   -110589.74    78.337353    276611.33  0.038538101 
    8600    316.03914   -111482.98   -110602.16   -4.4887153    276424.68  0.038564123 
    8700    299.57044   -111452.32    -110617.4    40.827226    276238.95  0.038590051 
    8800    304.72697   -111482.28   -110632.99   -98.147507    276072.53  0.038613315 
    8900    290.84774      -111457    -110646.4   -10.530533    275935.15  0.038632538 
    9000    287.49694   -111457.09   -110655.82    -309.5803    275827.27  0.038647648 
    9100     293.9355   -111484.06   -110664.84   -37.212882    275730.18  0.038661257 
    9200    297.24301   -111501.95   -110673.51    265.85345    275633.59  0.038674806 
    9300    299.61291   -111514.47   -110679.44    20.768999    275581.54   0.03868211 
    9400    284.81057   -111478.21   -110684.42   -260.33793    275540.55  0.038687864 
    9500    295.38656   -111508.89   -110685.63     -24.7562    275424.89  0.038704111 
    9600     288.3559   -111487.59   -110683.93    10.366404    275271.54  0.038725672 
    9700    306.19355   -111531.77   -110678.39   -231.40588    275115.72  0.038747605 
    9800    305.41998   -111521.32    -110670.1    354.56562     274982.9  0.038766321 
    9900    287.94569   -111464.94   -110662.42    173.55304    274894.81  0.038778744 
   10000    289.72795   -111461.24   -110653.75    30.725747    274775.07  0.038795642 
   10100    292.87109   -111460.75   -110644.51   -169.42878    274655.97  0.038812465 
   10200    306.26642   -111488.35   -110634.77    -131.3554    274546.32  0.038827966 
   10300    305.43937   -111476.97   -110625.69    19.560764    274434.05  0.038843852 
   10400    310.47431   -111484.36   -110619.05    -119.9441    274300.04  0.038862828 
   10500    308.45493   -111473.01   -110613.32    236.45591    274136.32  0.038886038 
   10600    297.66046   -111439.09   -110609.49   -226.91747    274032.74  0.038900736 
   10700    301.40433   -111445.36   -110605.33     84.49895    273926.98  0.038915755 
   10800     302.3728   -111445.05   -110602.32    94.432972    273793.57  0.038934718 
   10900    309.12751   -111462.13   -110600.57   -92.909387    273676.74  0.038951338 
   11000    297.38584   -111428.36   -110599.53   -257.37331    273622.65  0.038959038 
   11100    307.75045   -111456.08   -110598.36   -58.631579    273579.05  0.038965247 
   11200    303.65448   -111446.43   -110600.13   -252.66035    273481.96   0.03897908 
   11300    316.95617    -111486.8   -110603.42    -50.65876    273320.43  0.039002117 
   11400    310.99468   -111476.37   -110609.61    128.26635    273129.19  0.039029425 
   11500    304.84203   -111468.76   -110619.15    221.17723    272965.51  0.039052829 
   11600    293.13762   -111447.15   -110630.15    -47.26453    272858.05  0.039068209 
   11700    297.79306   -111469.72   -110639.75    -285.2647    272739.47  0.039085195 
   11800    306.81764   -111505.21   -110650.09    5.5515321    272613.92  0.039103195 
   11900    296.48799   -111485.48   -110659.15   -258.31073    272473.22  0.039123388 
   12000    293.19012   -111484.06   -110666.93   -38.032189    272345.05  0.039141799 
   12100    293.41783   -111487.94   -110670.16    305.32999    272208.85  0.039161384 
   12200     284.7621   -111464.34    -110670.7   -80.572908    272038.67  0.039185882 
   12300    294.58681   -111489.57   -110668.54    313.30939    271859.72  0.039211677 
   12400    301.15402   -111503.72   -110664.39   -37.113082    271651.74  0.039241698 
   12500    295.32381   -111481.62   -110658.54   -22.980779    271391.49  0.039279329 
   12600    304.10493   -111497.72   -110650.16   -64.642149    271078.55  0.039324674 
   12700    300.38435   -111477.62   -110640.43    241.09768    270745.98  0.039372978 
   12800    303.45279   -111474.11   -110628.37    86.342327    270417.71  0.039420774 
   12900    303.01559   -111461.78   -110617.26    115.92741    270128.77   0.03946294 
   13000    305.84071   -111460.69   -110608.29    472.61483    269864.22  0.039501626 
   13100    315.90701   -111480.82   -110600.37   -155.62372    269661.08  0.039531383 
   13200    307.18985   -111452.85   -110596.69   -361.13091    269468.49  0.039559636 
   13300    304.92721   -111445.31   -110595.46   -121.42313    269279.82  0.039587353 
   13400    311.21033    -111464.6   -110597.24   -46.657487    269127.21  0.039609801 
   13500    313.78871   -111477.39   -110602.85   -235.20341    268958.22  0.039634689 
   13600    315.81792   -111495.59   -110615.39   -33.770441    268744.72  0.039666175 
   13700    301.65429   -111479.77   -110639.04    123.97983    268515.18  0.039700084 
   13800    292.62911   -111479.64   -110664.06    56.381344    268326.49  0.039728003 
   13900    300.63294   -111516.77   -110678.89     180.9639    268165.37  0.039751872 
   14000     284.8899   -111480.43   -110686.42   -200.84768    268043.48  0.039769948 
   14100    282.87133    -111477.4   -110689.02    126.03687    267906.06  0.039790348 
   14200    296.96653   -111514.52   -110686.85   -121.11182    267772.04  0.039810263 
   14300    288.23298   -111487.67   -110684.35   -19.663855    267638.23  0.039830167 
   14400    290.53535   -111488.15   -110678.42   -80.216259    267475.72  0.039854366 
   14500    292.55892   -111487.12   -110671.74    182.58959    267315.17  0.039878303 
   14600    296.48323   -111488.32      -110662   -146.59096    267199.71  0.039895534 
   14700    294.85946   -111473.91   -110652.12    40.017695    267047.88  0.039918217 
   14800    292.50571   -111456.13    -110640.9    238.72331    266832.95  0.039950371 
   14900     306.2036   -111483.32   -110629.91   -218.31426    266577.74  0.039988618 
   15000    303.44886    -111465.6   -110619.87    150.12112    266268.83  0.040035011 
   15100     302.6462   -111456.87   -110613.38   -64.152061    265931.37  0.040085814 
   15200    303.18847   -111452.37   -110607.37    -58.03362    265579.49  0.040138926 
   15300    303.09153   -111448.54    -110603.8    -82.97886    265200.95  0.040196218 
   15400    298.70886    -111434.7   -110602.18   -73.264459    264771.54  0.040261409 
   15500    315.20034   -111480.02   -110601.54    88.222067    264331.63  0.040328413 
   15600    296.81244    -111431.6   -110604.37   -89.675568    263916.85  0.040391795 
   15700    316.35592   -111491.38   -110609.68   -1.9184515    263496.05    0.0404563 
   15800    308.14546   -111476.44   -110617.62   -109.00517    263020.19  0.040529494 
   15900    303.78098   -111477.26    -110630.6    10.738843     262491.7  0.040611095 
   16000    295.26634   -111469.95   -110647.02    89.989186     261917.9  0.040700065 
   16100     298.3154   -111493.34   -110661.91    365.96045    261382.21  0.040783477 
   16200    294.14058   -111491.39   -110671.61    210.65568    260927.08  0.040854615 
   16300    292.91459   -111492.87    -110676.5    94.869327    260542.03  0.040914993 
   16400    291.16966   -111488.56   -110677.05    66.987305    260185.13  0.040971117 
   16500    295.37979   -111499.59   -110676.35   -212.22903    259881.29  0.041019019 
   16600    295.98189   -111496.73   -110671.82    113.06497    259555.52  0.041070501 
   16700    295.27846   -111489.83   -110666.88    169.48588    259261.38  0.041117097 
   16800    288.21242   -111464.92   -110661.66   -90.581867    258984.73   0.04116102 
   16900    296.49103    -111482.6   -110656.26    27.111043     258675.7  0.041210192 
   17000     290.5119   -111459.02   -110649.35    71.220875    258323.04  0.041266452 
   17100    296.72161   -111468.38    -110641.4    -352.8852     257958.3    0.0413248 
   17200    299.95915   -111468.13   -110632.13   -259.22708    257591.65  0.041383621 
   17300    308.62864   -111483.73   -110623.56   -53.112304    257205.32  0.041445781 
   17400    292.81929   -111432.44   -110616.34   -362.33264    256800.67  0.041511089 
   17500    304.96447    -111459.4   -110609.44   -33.408723    256356.49  0.041583014 
   17600    309.80611   -111466.61   -110603.16    109.91974     255921.2   0.04165374 
   17700    318.98683   -111487.09   -110598.05   -90.721821    255531.61  0.041717248 
   17800    295.21172   -111418.04   -110595.27   -56.631636    255190.05  0.041773083 
   17900    304.60368   -111443.25    -110594.3   -329.59108    254829.79  0.041832139 
   18000     319.9339   -111485.74   -110594.06   -383.66959    254382.03  0.041905772 
   18100    307.80899   -111452.85   -110594.96    456.45569    253889.34  0.041987093 
   18200    300.31657   -111436.54   -110599.54   -84.155613    253416.46  0.042065442 
   18300    297.84279   -111442.71    -110612.6   -357.84831    252932.76  0.042145887 
   18400    300.92612   -111469.57   -110630.87    269.75027    252413.22  0.042232634 
   18500    304.19207   -111496.44   -110648.64    303.82935    251888.85  0.042320552 
   18600    289.59299   -111468.93   -110661.82    -36.47466    251325.98  0.042415333 
   18700    291.43011   -111482.53    -110670.3     187.4876     250803.7   0.04250366 
   18800    287.46404    -111476.5   -110675.32   -200.15951    250284.38  0.042591853 
   18900    289.05496   -111482.05   -110676.43   -196.94921    249757.96  0.042681624 
   19000     303.3922   -111521.22   -110675.65    204.42071    249212.93  0.042774969 
   19100    298.54812    -111503.8   -110671.73    428.83973    248673.38  0.042867779 
   19200    296.95697   -111493.04   -110665.41   -171.03118    248154.12  0.042957479 
   19300    295.67302   -111480.77   -110656.71    267.10275    247660.45  0.043043107 
   19400    289.26357   -111450.31   -110644.12   -275.97186    247225.15  0.043118895 
   19500    297.31687   -111459.12   -110630.48   -128.65888    246836.51  0.043186786 
   19600    305.88218   -111471.98   -110619.47   -87.064033    246469.25  0.043251138 
   19700    292.79095   -111426.13    -110610.1   -160.48696    246058.02  0.043323421 
   19800    297.27627   -111431.05   -110602.52   -60.304928    245615.24  0.043401523 
   19900    302.34484   -111439.58   -110596.92    237.86032    245198.72  0.043475249 
   20000    301.33362   -111435.45   -110595.61   -146.99221    244874.08  0.043532886 
   20100    309.70653   -111461.56   -110598.39    -11.00149    244554.85  0.043589712 
   20200    310.52681   -111467.99   -110602.53    39.362839    244207.33  0.043651743 
   20300    308.01666   -111465.97   -110607.51   -85.280737    243819.78  0.043721126 
   20400    294.88876   -111433.75   -110611.88   -191.12989     243415.7  0.043793706 
   20500    301.54458    -111456.8   -110616.38   -66.015318    242984.39  0.043871441 
   20600    292.94481   -111436.43   -110619.98    175.48719    242569.03  0.043946564 
   20700    301.00989   -111462.15   -110623.22    587.12171    242195.15  0.044014405 
   20800    296.13912   -111452.17   -110626.81    68.041532    241861.02   0.04407521 
   20900    300.69528   -111470.36    -110632.3   -296.29527    241566.71  0.044128909 
   21000    297.08957   -111466.19   -110638.18    220.74141     241276.4  0.044182006 
   21100    294.93268   -111469.24   -110647.24    107.11361    241031.25  0.044226943 
   21200    307.91117   -111517.53   -110659.36    -136.7218    240806.67   0.04426819 
   21300    293.64089   -111493.04   -110674.64   -142.86419    240552.46  0.044314971 
   21400    288.53038   -111495.48   -110691.33   -215.77113    240269.29    0.0443672 
   21500    279.76494   -111487.03   -110707.31   -204.50792    239988.61  0.044419088 
   21600    280.03228   -111499.87    -110719.4    8.3614261    239717.33  0.044469357 
   21700    287.85899   -111527.73   -110725.46   -58.311022    239472.46  0.044514828 
   21800    281.85202   -111514.55   -110729.01   -431.25862     239237.5  0.044558546 
   21900    279.98955   -111507.66   -110727.31   -286.96966    238949.62   0.04461223 
   22000    280.13643   -111500.44   -110719.68    37.947956    238636.83  0.044670705 
   22100    283.01852   -111498.63   -110709.84    328.28125    238330.84  0.044728057 
   22200    291.58912   -111514.22   -110701.55    284.29657    238029.16  0.044784745 
   22300    279.37921   -111473.65      -110695    291.41395    237729.75   0.04484115 
   22400    284.18182   -111480.36   -110688.33    343.08268    237462.89  0.044891541 
   22500    293.53445   -111499.17   -110681.07    -276.4681    237237.27  0.044934235 
   22600    295.35672   -111493.51   -110670.33   -108.77895    237025.26  0.044974427 
   22700    293.37096   -111476.03   -110658.39   -58.832717    236815.51  0.045014262 
   22800    304.08357   -111491.94   -110644.45   -290.43649    236608.74    0.0450536 
   22900    294.66538   -111454.31   -110633.06   -149.15117    236425.38  0.045088541 
   23000    314.89333   -111502.17   -110624.55   -20.726396    236239.16  0.045124082 
   23100    307.08229    -111471.5   -110615.64    500.05546    236050.77  0.045160096 
   23200    297.90805   -111437.23   -110606.94   -118.79175    235859.91  0.045196641 
   23300    294.65661   -111421.44   -110600.22    102.59465    235683.02  0.045230562 
   23400    309.82455    -111456.9    -110593.4    76.258078    235548.66  0.045256362 
   23500      309.613   -111451.85   -110588.94    48.977791    235405.94    0.0452838 
   23600     303.8362   -111433.09   -110586.28   -609.78168    235223.54  0.045318913 
   23700    306.84447   -111439.96   -110584.77   -80.896936    235003.12  0.045361421 
   23800    311.55616   -111453.11   -110584.78    109.10816    234788.86  0.045402817 
   23900    311.33122   -111456.67   -110588.97   -498.36567    234619.76   0.04543554 
   24000    308.34756   -111457.44   -110598.06    252.63533    234424.63   0.04547336 
   24100    308.90544   -111473.32   -110612.39   -227.55972    234195.23  0.045517901 
   24200    293.81303   -111449.75   -110630.88    256.91537    233971.67  0.045561393 
   24300    296.97906   -111474.11   -110646.41    -286.3144    233777.45  0.045599245 
   24400     291.7551   -111472.26   -110659.13   -441.55745    233578.47   0.04563809 
   24500    295.09277   -111488.05   -110665.61    224.26831    233319.71  0.045688705 
   24600    294.36067   -111488.82   -110668.42   -103.51819    233061.88  0.045739248 
   24700    294.05841   -111487.84   -110668.28    285.15349    232808.54  0.045789022 
   24800    284.82969   -111459.37   -110665.54   -455.60694    232577.96  0.045834417 
   24900    306.58747   -111515.68    -110661.2    68.142624    232326.89   0.04588395 
   25000    307.56316   -111511.62   -110654.42   -111.19085    232047.62  0.045939171 
   25100    288.70516   -111452.04    -110647.4    59.539752    231772.68  0.045993667 
   25200    298.62457   -111471.71   -110639.42    363.57415    231499.59  0.046047924 
   25300    310.86345   -111498.37   -110631.97   -234.56414    231247.63  0.046098096 
   25400    299.13458   -111459.18   -110625.47    34.971173    230988.74  0.046149762 
   25500    302.56351   -111461.68   -110618.42    325.74414    230726.12  0.046202292 
   25600    296.24582   -111437.45   -110611.79    -171.7961    230516.16  0.046244372 
   25700    305.83152   -111458.19   -110605.82    125.24117    230304.26  0.046286922 
   25800    310.06843   -111464.19   -110600.01   -356.65055    230087.07  0.046330614 
   25900    301.17314   -111435.77   -110596.38   -278.02605       229852  0.046377996 
   26000      298.839   -111425.51   -110592.63    224.47625    229603.14  0.046428264 
   26100    310.45085   -111453.35    -110588.1    45.394313    229364.61  0.046476548 
   26200    310.33332   -111449.11   -110584.19   -131.38851    229156.94  0.046518666 
   26300    303.00876   -111427.69   -110583.19   -294.73121    228939.39  0.046562872 
   26400    303.28566   -111429.33   -110584.06    151.04978    228659.59  0.046619848 
   26500    307.53203   -111446.76   -110589.65   -171.98837    228384.92  0.046675917 
   26600    304.29744   -111446.21   -110598.12    39.342365    228143.26  0.046725357 
   26700    309.50396   -111473.63   -110611.03   -181.90952    227932.04  0.046768657 
   26800    311.37254   -111494.03   -110626.22   -196.68473    227683.59  0.046819692 
   26900    294.55417    -111460.6   -110639.66    -201.1932    227420.82  0.046873789 
   27000    301.01515   -111488.92   -110649.97   -108.27511    227138.05  0.046932143 
   27100    289.68358   -111465.62   -110658.26   -52.543337    226859.52  0.046989764 
   27200    298.07021   -111496.49   -110665.75   -347.38901    226613.34  0.047040812 
   27300    298.03319   -111502.25   -110671.61   -82.467062    226362.62  0.047092913 
   27400    289.17189   -111481.65   -110675.71    402.41353    226057.61  0.047156454 
   27500    300.42486   -111515.24   -110677.94    172.68332    225735.79  0.047223682 
   27600    293.46504    -111496.7    -110678.8    322.89719    225432.61  0.047287192 
   27700    299.15907   -111510.38   -110676.61    90.444385    225149.82  0.047346586 
   27800    296.90471   -111499.92   -110672.43   -55.432941    224858.58   0.04740791 
   27900    311.32616   -111534.11   -110666.43    119.75658    224510.52  0.047481408 
   28000     303.0595   -111504.24    -110659.6    207.48477    224154.66  0.047556788 
   28100    292.82111    -111463.9   -110647.79    336.58433    223801.15  0.047631906 
   28200    310.93361   -111499.47   -110632.88    128.40114    223490.66  0.047698081 
   28300    295.13671   -111441.73   -110619.17   -56.693574    223201.63  0.047759846 
   28400     306.0971   -111459.17   -110606.06   -150.95546    222920.43  0.047820091 
   28500    303.94776   -111445.69   -110598.57    285.67524    222645.34  0.047879176 
   28600    311.54984   -111461.56   -110593.26   -54.029817    222392.19  0.047933677 
   28700     315.3512   -111471.64   -110592.74    187.25115    222189.27  0.047977453 
   28800    313.91483   -111471.12   -110596.22    469.80734    222021.31  0.048013749 
   28900    318.21913   -111490.49   -110603.59    211.04628    221882.19  0.048043853 
   29000    303.01505    -111458.7   -110614.18     70.68329    221709.15  0.048081351 
   29100    296.47394   -111447.93   -110621.64    98.480904    221528.91   0.04812047 
   29200    293.33679    -111445.7   -110628.15   -40.981319    221360.26  0.048157133 
   29300    303.09302   -111478.19   -110633.45   -45.942423    221203.83  0.048191188 
   29400    299.63863   -111471.83   -110636.72    310.58696    221016.16  0.048232109 
   29500    298.66722   -111471.95   -110639.55    301.98595     220815.7  0.048275894 
   29600    296.85886   -111468.41   -110641.05    93.033514    220611.95  0.048320479 
   29700    288.03907   -111444.66   -110641.88   -140.73157    220439.15  0.048358358 
   29800    301.68701   -111484.34   -110643.52    63.740358     220292.1  0.048390639 
   29900    304.14489   -111493.71   -110646.05    168.57783    220135.74   0.04842501 
   30000    300.44601   -111485.63   -110648.27   -81.673129    219979.66  0.048459369 
   30100    295.56354   -111473.04   -110649.29    285.86077    219829.28  0.048492518 
   30200    302.52338   -111492.05    -110648.9    194.54428    219715.61  0.048517605 
   30300    289.58825   -111454.42   -110647.32   -1.1570137    219631.71  0.048536139 
   30400    296.66604   -111469.42    -110642.6    -206.5706    219555.58  0.048552969 
   30500    307.91906   -111493.08    -110634.9   -8.2482904    219455.95  0.048575012 
   30600    304.12082   -111472.87   -110625.27    196.40363    219334.07  0.048602004 
   30700     311.3096   -111481.33   -110613.69   -70.911869     219235.1  0.048623945 
   30800     305.2954   -111452.49   -110601.61   -2.0846329    219152.21  0.048642335 
   30900     308.0685   -111448.46   -110589.86    38.071156    219091.42  0.048655831 
   31000    308.18784   -111440.36   -110581.42   -272.14142    219005.16  0.048674996 
   31100    311.91913   -111445.98   -110576.64    83.766188    218885.66   0.04870157 
   31200    325.78361   -111482.49   -110574.51    186.97393    218745.97  0.048732671 
   31300    318.41119   -111466.05   -110578.62   -558.86179    218631.11  0.048758272 
   31400    298.90465   -111421.78   -110588.71    313.87182    218529.89  0.048780858 
   31500    311.27316   -111474.97   -110607.44   -153.21406    218461.52  0.048796124 
   31600    319.49478   -111519.04   -110628.59   -510.03789    218359.12  0.048819006 
   31700    298.75514   -111477.97   -110645.33   -45.482481    218215.72  0.048851087 
   31800    292.59206   -111468.89   -110653.42   -21.367135    218073.89  0.048882859 
   31900    298.30536   -111489.11   -110657.72   -2.5199806    217915.54  0.048918381 
   32000    300.13825   -111497.07   -110660.57   -237.57443    217722.53  0.048961747 
   32100    297.17459   -111489.26   -110661.02   -157.32643    217529.92    0.0490051 
   32200    297.03805   -111485.79   -110657.92    184.64966    217351.84  0.049045251 
   32300      292.977   -111470.11   -110653.57   -143.45339    217167.71  0.049086834 
   32400    295.53608   -111471.21   -110647.54     328.4778    216972.41  0.049131018 
   32500    295.58585    -111464.1   -110640.29    292.99769    216820.24  0.049165499 
   32600     295.4669      -111454   -110630.51    -199.1124    216705.13  0.049191616 
   32700    298.26396   -111452.24   -110620.96    430.96875    216557.52  0.049225146 
   32800    308.79022   -111471.12    -110610.5    83.008836    216369.54  0.049267912 
   32900    315.45555   -111482.41   -110603.22    136.65977    216144.79   0.04931914 
   33000    319.16117    -111488.5   -110598.98    247.56546    215924.89  0.049369369 
   33100    308.53274   -111457.63   -110597.73    72.511727    215766.77  0.049405548 
   33200    309.16013    -111461.2   -110599.56   -306.75007    215632.66  0.049436275 
   33300    303.01937   -111450.72   -110606.19    200.98159    215479.02  0.049471524 
   33400    308.14938   -111476.43    -110617.6   -107.60495    215330.94  0.049505543 
   33500    311.36865   -111501.44   -110633.64   -65.067716    215230.26  0.049528703 
   33600    302.60111   -111495.26   -110651.89    336.80391    215178.04  0.049540721 
   33700    297.65784   -111496.22   -110666.63    102.74084    215153.78  0.049546306 
   33800    294.52771   -111497.65   -110676.78    67.864795    215119.97  0.049554096 
   33900    292.66355    -111497.7   -110682.03   -358.70479    215061.11  0.049567656 
   34000    293.28731   -111503.29   -110685.88   -182.63018    215005.38  0.049580505 
   34100    300.92993   -111525.84   -110687.13   -268.61274    214942.04  0.049595116 
   34200    291.26985   -111498.57   -110686.79    98.686137    214900.95  0.049604598 
   34300    296.08465   -111510.49   -110685.28    239.23663    214886.92  0.049607838 
   34400    294.46953   -111501.38   -110680.67   -124.72754    214897.91  0.049605299 
   34500     296.7574   -111502.36   -110675.28    120.81016    214900.19  0.049604774 
   34600    294.84537   -111490.37   -110668.61   -248.85108       214884  0.049608511 
   34700    303.38834   -111506.47   -110660.91    328.05989    214838.52  0.049619012 
   34800    302.51026   -111494.81   -110651.69    265.36699    214753.81  0.049638586 
   34900     296.1902   -111467.59   -110642.09    3.1125154    214662.46   0.04965971 
   35000    307.10974    -111486.3   -110630.36   -243.25614    214560.24  0.049683367 
   35100    308.22518   -111479.43   -110620.38    239.16619    214454.22   0.04970793 
   35200    312.33057    -111483.8   -110613.32   -416.53797    214333.43  0.049735943 
   35300    314.92036   -111487.84   -110610.14   -387.06763    214155.97  0.049777156 
   35400    306.40718    -111463.4   -110609.43   -266.60965    213947.31  0.049825704 
   35500    302.14775   -111453.63   -110611.52    422.87801    213727.34  0.049876985 
   35600    299.56888   -111451.31   -110616.39    161.82804    213528.06  0.049923534 
   35700    301.03343    -111461.7    -110622.7    310.32998    213337.36   0.04996816 
   35800    309.51567   -111493.67   -110631.03    203.40434    213180.52  0.050004921 
   35900    305.43746   -111489.71   -110638.44   -295.27034    213052.55  0.050034957 
   36000    314.05754   -111519.72   -110644.42   -77.838463    212952.21  0.050058534 
   36100    293.90767   -111467.95   -110648.81   -212.20062    212894.42  0.050072121 
   36200    294.53954   -111471.42   -110650.52    127.22761    212840.58  0.050084788 
   36300    301.70597   -111492.97    -110652.1   -168.57554    212771.22  0.050101115 
   36400    300.53679   -111489.53   -110651.91   -18.889296     212633.7  0.050133518 
   36500    284.47396   -111445.38   -110652.54   -133.48063    212461.41  0.050174172 
   36600    302.99044   -111495.85    -110651.4   -35.977575    212273.02  0.050218701 
   36700    304.29154   -111497.58   -110649.51   -69.882481    212122.91  0.050254239 
   36800    300.32831   -111484.36   -110647.33    37.885542    212001.56  0.050283006 
   36900    300.59077   -111482.12   -110644.36    189.15914     211881.3  0.050311545 
   37000    293.23607   -111457.91   -110640.64    253.61159    211747.96  0.050343225 
   37100    294.23917   -111456.28   -110636.22   -147.16212    211603.59  0.050377573 
   37200    297.67721    -111460.8   -110631.15    201.13855    211478.02  0.050407486 
   37300    298.32634   -111456.96   -110625.51    48.687116    211356.06  0.050436574 
   37400    309.19219   -111480.12   -110618.39   -83.140055    211224.34  0.050468025 
   37500    306.28319   -111466.61   -110612.99   -13.106408    211067.34  0.050505565 
   37600    312.39671   -111478.45   -110607.79    83.935257    210865.74  0.050553851 
   37700    310.79746   -111469.05   -110602.84    78.692497    210679.32  0.050598584 
   37800    310.59408   -111465.49   -110599.84    43.854021    210513.43  0.050638458 
   37900     304.5039   -111447.23   -110598.56    257.47509    210371.48  0.050672627 
   38000    295.37937   -111424.84    -110601.6    210.26755    210281.16  0.050694391 
   38100    306.26157   -111459.65   -110606.08    193.97048    210212.26  0.050711008 
   38200     296.4164   -111440.36   -110614.23    128.11494    210138.59  0.050728786 
   38300     298.3168    -111457.7   -110626.27    109.17891    210063.58  0.050746899 
   38400    304.68663   -111488.73   -110639.55   -203.31168    209953.87  0.050773418 
   38500     305.1397   -111504.34    -110653.9    -151.7873    209806.06  0.050809188 
   38600    299.19178   -111500.78   -110666.92    26.405548    209676.35  0.050840619 
   38700    293.54894    -111493.6   -110675.46    264.00941    209560.17  0.050868804 
   38800    288.50799   -111484.48   -110680.39    8.9969046    209429.96  0.050900431 
   38900    297.38418   -111511.31   -110682.48   -171.25297    209273.25  0.050938547 
   39000    306.16168   -111535.37   -110682.08   -276.24239    209073.36  0.050987248 
   39100    286.11959    -111477.5   -110680.07   -77.878361    208863.92  0.051038377 
   39200    297.46634   -111505.26    -110676.2   -185.52027    208665.39  0.051086935 
   39300    290.04704   -111478.89   -110670.51   -237.12206    208478.63  0.051132701 
   39400    306.63188   -111518.08   -110663.48    221.15003    208293.48  0.051178152 
   39500    304.17299   -111501.71   -110653.96    -257.7655    208138.66  0.051216221 
   39600    298.81084   -111475.91   -110643.11   -104.13013    208020.22   0.05124538 
   39700    298.79065   -111464.46   -110631.71   -16.692603    207926.88  0.051268386 
   39800    305.34193   -111470.34   -110619.34   -47.096364    207848.98    0.0512876 
   39900    311.86415   -111477.61   -110608.42    86.661261    207782.24  0.051304075 
   40000     308.6697   -111460.55   -110600.27   -129.31606    207738.38  0.051314907 
   40100    301.12999   -111433.18   -110593.91    46.558166    207697.38  0.051325035 
   40200    319.09841   -111477.67   -110588.32    27.905745    207632.16  0.051341158 
   40300    314.24666   -111460.77   -110584.95    14.532633    207558.35  0.051359415 
   40400    318.46642   -111471.56   -110583.97   -116.56778     207479.3  0.051378983 
   40500    314.63444   -111464.93   -110588.03    84.398463    207427.18  0.051391892 
   40600    313.60954   -111472.24   -110598.19    221.50706    207413.23   0.05139535 
   40700    300.53685   -111451.32    -110613.7   -42.672259    207421.53  0.051393293 
   40800    311.36687   -111497.16   -110629.37   -38.939353    207442.65  0.051388059 
   40900    303.92657   -111491.51   -110644.45   -141.22569    207452.69  0.051385573 
   41000    301.01763   -111496.18   -110657.23   -425.09927    207438.19  0.051389166 
   41100     288.9002   -111472.16   -110666.98   -180.48171    207350.59  0.051410876 
   41200    281.82566   -111459.27    -110673.8    555.24328    207237.38  0.051438959 
   41300    295.41425   -111499.74    -110676.4   -381.84033    207153.82   0.05145971 
   41400    286.74488   -111476.53   -110677.36   -391.72894    207059.08  0.051483255 
   41500    292.46365   -111490.12   -110675.01   -293.06562     206955.4  0.051509048 
   41600    295.29654   -111491.69   -110668.68    252.71005    206809.73  0.051545328 
   41700    294.94182   -111480.28   -110658.26    208.43765    206659.85  0.051582712 
   41800    291.45157   -111458.71   -110646.42    382.63558    206521.33  0.051617309 
   41900    296.69282   -111460.58   -110633.68   -87.470985    206408.63  0.051645493 
   42000      301.922   -111463.12   -110621.64   -300.79032    206291.68  0.051674772 
   42100    302.26679   -111456.01   -110613.57   -112.32753    206146.61  0.051711136 
   42200    297.91737   -111440.51    -110610.2    148.85424    205987.29  0.051751131 
   42300    307.25218    -111464.9   -110608.57    183.64316    205802.81  0.051797521 
   42400    289.41955    -111413.3   -110606.67    329.23958    205598.63   0.05184896 
   42500    304.91903   -111455.47   -110605.64   -101.97168     205381.8  0.051903699 
   42600    301.26527   -111444.83   -110605.18   -70.887879    205149.79    0.0519624 
   42700    311.97956   -111476.67   -110607.16    18.079338    204914.81  0.052021986 
   42800    307.66526   -111468.94   -110611.46    162.09746    204671.79  0.052083756 
   42900    305.81302   -111471.19   -110618.87   -294.89145    204455.33  0.052138896 
   43000    307.82221   -111488.71   -110630.79    329.24452    204246.09   0.05219231 
   43100    302.04343   -111489.74   -110647.92    134.43511    204032.64  0.052246912 
   43200    306.13299   -111518.33   -110665.12   -141.84393    203788.17  0.052309588 
   43300    291.82472   -111492.05   -110678.72     512.0642    203527.92  0.052376476 
   43400    289.91837   -111493.36   -110685.34    3.4997759    203275.89  0.052441414 
   43500    283.51532   -111477.59   -110687.41    149.80977    203022.15  0.052506957 
   43600    289.95915   -111493.89   -110685.76    124.59127     202769.3  0.052572432 
   43700    291.36564   -111492.98   -110680.93   -55.811407     202549.8  0.052629405 
   43800    285.72001   -111472.58   -110676.26    -236.2502    202335.14  0.052685239 
   43900     303.5817   -111516.16   -110670.07   -252.21431    202142.29  0.052735503 
   44000    287.21301   -111464.57   -110664.09   -10.570734    201958.71  0.052783441 
   44100    290.48306   -111465.36   -110655.77   -63.576573    201789.44  0.052827717 
   44200     309.2018   -111509.63   -110647.87    195.08041     201602.1  0.052876807 
   44300    296.88457   -111468.08   -110640.65    -23.39026     201438.3  0.052919805 
   44400    294.67808   -111454.93   -110633.64    123.91777    201324.84  0.052949627 
   44500     299.3753    -111460.4   -110626.02     16.00016     201237.5  0.052972609 
   44600    303.03868    -111464.1   -110619.51    65.703777    201149.43  0.052995802 
   44700    307.05874   -111470.65   -110614.86   -104.47804    201067.16  0.053017485 
   44800    312.16538   -111480.96   -110610.94   -166.54365    200975.67  0.053041622 
   44900    312.14052   -111480.34   -110610.39   -192.55299    200895.17  0.053062875 
   45000    308.31826   -111472.72   -110613.42   -42.708804     200830.3  0.053080016 
   45100    299.06231   -111454.19   -110620.69    177.38403    200762.77  0.053097868 
   45200    292.29556   -111448.77   -110634.13   -280.91626     200674.1   0.05312133 
   45300     298.7908   -111486.93   -110654.18   -73.662685    200571.45  0.053148519 
   45400    283.58777    -111466.2   -110675.82   -39.162747    200475.63  0.053173921 
   45500    289.40142   -111495.03   -110688.45   -188.53925    200351.98  0.053206738 
   45600    293.75927   -111511.38   -110692.66    66.859112     200209.8  0.053244524 
   45700    283.23136   -111481.98    -110692.6   -146.84783    200066.03  0.053282786 
   45800    282.89176   -111480.27   -110691.84    450.20901       199946  0.053314773 
   45900    291.82314   -111501.31   -110687.98   -267.48968    199841.33  0.053342696 
   46000    296.83764   -111508.47   -110681.17    306.97655    199737.23  0.053370498 
   46100    286.19276   -111470.87   -110673.24   -53.513137    199651.19  0.053393498 
   46200    299.15112   -111496.71   -110662.96    -281.1348    199580.14  0.053412505 
   46300    301.48026    -111492.5   -110652.26    204.85439    199531.87  0.053425428 
   46400    306.38233   -111497.05   -110643.14   -346.69248    199501.28  0.053433619 
   46500      302.808   -111479.72   -110635.77    -193.3022    199454.29  0.053446207 
   46600    309.48353    -111494.8   -110632.26    78.045505    199360.77  0.053471278 
   46700    302.81093   -111474.49   -110630.53   -180.93701     199262.4  0.053497677 
   46800    305.62313   -111480.78   -110628.99   -165.74956    199141.84  0.053530065 
   46900    314.72178   -111505.58   -110628.44   -200.53933    198993.54  0.053569958 
   47000    298.01985   -111459.95   -110629.35   -299.58035       198822  0.053616175 
   47100    305.31477   -111481.73    -110630.8   -222.34223    198631.66  0.053667555 
   47200    307.85352   -111491.24   -110633.23   -15.807571     198433.1  0.053721255 
   47300    282.76888   -111426.17   -110638.08   -437.56768    198246.46  0.053771831 
   47400    299.18338   -111479.68   -110645.84    57.003254    198064.64  0.053821192 
   47500    303.22612   -111501.17   -110656.06    424.61633    197907.55  0.053863916 
   47600    292.80641   -111487.38   -110671.31   -26.629551     197778.2  0.053899141 
   47700    289.02671   -111494.95   -110689.42    380.22488    197674.69  0.053927365 
   47800    287.86223   -111508.85   -110706.56    141.55822    197575.57   0.05395442 
   47900    293.70797   -111537.71   -110719.12   0.21145881     197464.5  0.053984768 
   48000     284.5043   -111517.38   -110724.45    -39.29624    197341.09  0.054018528 
   48100    280.97281   -111506.75   -110723.67   -316.15851    197219.97  0.054051704 
   48200    281.56856    -111504.1   -110719.35   -517.21013    197076.55  0.054091039 
   48300    287.22217   -111513.68   -110713.17   -50.192268    196908.72  0.054137142 
   48400    281.21208   -111489.04   -110705.29     160.4929    196724.98  0.054187705 
   48500     286.1585   -111493.47   -110695.93    297.74347    196516.56  0.054245177 
   48600    297.93994   -111517.18    -110686.8   -67.208074    196310.54  0.054302104 
   48700    291.69803   -111490.74   -110677.76   -72.693886    196104.53   0.05435915 
   48800    291.40232   -111481.29   -110669.14   -317.73194    195916.34  0.054411365 
   48900    294.85481   -111481.27   -110659.49    165.49185    195733.18   0.05446228 
   49000    296.07262   -111474.22   -110649.05    243.26792    195570.88  0.054507477 
   49100    294.34111   -111460.77   -110640.43    140.05736    195416.54  0.054550528 
   49200    305.99487   -111485.66   -110632.83    384.89019    195265.49  0.054592726 
   49300    308.74892   -111487.97   -110627.47    379.64956    195133.51   0.05462965 
   49400    316.19013   -111505.42   -110624.18   -308.81068    195015.16  0.054662804 
   49500    308.49988   -111482.35   -110622.54    -173.7883    194871.45  0.054703114 
   49600     308.2085   -111481.25   -110622.26    276.47829    194729.67  0.054742944 
   49700    310.48063   -111489.87   -110624.54   -45.685644    194633.16  0.054770087 
   49800    295.29358   -111454.14   -110631.14    82.613746    194576.51  0.054786036 
   49900    303.52464   -111487.33   -110641.39    26.580691     194528.4  0.054799584 
   50000     299.7256   -111489.51   -110654.16   -553.99999    194492.92   0.05480958 
   50100    306.23826   -111522.45   -110668.95    90.048381    194453.03  0.054820825 
   50200    295.92329   -111506.73   -110681.97    10.291159    194427.18  0.054828112 
   50300    293.01264   -111507.54    -110690.9    149.74623     194398.1  0.054836314 
   50400    298.37626   -111527.61   -110696.02    101.11574    194355.78  0.054848255 
   50500    299.63409   -111531.93   -110696.84    309.18596    194301.37  0.054863613 
   50600     288.8913   -111501.05   -110695.89    365.54285    194281.55   0.05486921 
   50700    294.19525   -111511.78   -110691.84    466.12393    194300.12  0.054863966 
   50800    289.99138   -111494.43   -110686.21   -340.35173    194320.47   0.05485822 
   50900    293.91994   -111500.31   -110681.13   -70.656887     194302.2   0.05486338 
   51000    294.94049   -111497.66   -110675.64   -111.11433    194244.69  0.054879622 
   51100    290.99866   -111479.29   -110668.26    306.67949    194155.67  0.054904784 
   51200     297.2085    -111490.1   -110661.76    379.44887    194061.08  0.054931547 
   51300    292.13171    -111468.4   -110654.21   -128.84929    193997.48  0.054949557 
   51400    304.35122   -111495.77   -110647.52   -162.32573    193942.62    0.0549651 
   51500    307.09745   -111498.15   -110642.25    44.506003    193876.57  0.054983824 
   51600    299.10177   -111470.71   -110637.09   -419.49841    193771.35  0.055013682 
   51700    295.08282   -111455.92    -110633.5   -320.43162    193608.12  0.055060063 
   51800    301.30029   -111470.79   -110631.05    193.82535    193405.23  0.055117824 
   51900    308.55866   -111487.86   -110627.89   -319.02435    193240.48  0.055164815 
   52000    302.53427   -111468.73   -110625.55    228.60188    193125.59  0.055197632 
   52100    296.01247   -111448.17   -110623.17   -203.20519    193048.07  0.055219797 
   52200    300.06209   -111455.06   -110618.77    41.051926    192951.58  0.055247411 
   52300    299.91754   -111448.68    -110612.8    -432.0162    192849.68  0.055276602 
   52400    307.91397   -111460.66   -110602.49    365.91545    192735.46  0.055309361 
   52500    300.91686   -111428.81   -110590.14   -54.390723    192613.48  0.055344389 
   52600    308.85144   -111436.83   -110576.04   -296.87941    192485.81  0.055381096 
   52700     309.5319   -111427.91   -110565.22    -399.2491    192386.96  0.055409553 
   52800    317.68896   -111444.28   -110558.87    203.15929    192317.86   0.05542946 
   52900     313.5534   -111432.91   -110559.02    237.12555    192301.63  0.055434138 
   53000    326.83494    -111476.7   -110565.79   -100.99845    192284.83  0.055438982 
   53100    316.27193   -111460.44   -110578.98     7.567058    192238.54  0.055452333 
   53200    296.69043   -111421.89      -110595   -37.874038    192163.49  0.055473989 
   53300     298.5499   -111441.15   -110609.08   -451.75233    192087.97    0.0554958 
   53400    299.27333   -111453.35   -110619.26     337.5162    192013.72  0.055517259 
   53500    303.80449   -111473.86   -110627.14   -35.770212    191946.77  0.055536622 
   53600    304.52704   -111481.56   -110632.83    241.22024    191873.67  0.055557781 
   53700    300.92831   -111475.28   -110636.58   -493.70153    191806.74  0.055577167 
   53800    303.04932   -111483.61   -110638.99    -212.8458    191757.47  0.055591449 
   53900    287.99658   -111443.84   -110641.17    164.15752    191728.32  0.055599899 
   54000    295.24714   -111466.66   -110643.79   -210.66711    191750.11  0.055593583 
   54100    302.36173    -111487.6    -110644.9   -456.89265    191786.76  0.055582959 
   54200    289.64083   -111452.41   -110645.17   -26.589863    191794.34  0.055580761 
   54300    292.84856   -111461.33   -110645.14    549.34366     191771.9  0.055587264 
   54400    288.59326    -111447.8   -110643.48   -143.92987    191713.78  0.055604118 
   54500     306.9808   -111494.11   -110638.53    21.470911    191638.01    0.0556261 
   54600    287.23499   -111432.57   -110632.03   -60.693929    191593.28  0.055639087 
   54700    297.25026   -111450.61   -110622.15    74.105656    191584.15  0.055641741 
   54800    303.63542   -111454.29   -110608.04    19.849028    191587.67  0.055640716 
   54900    308.89078   -111454.39    -110593.5    160.29191    191563.87  0.055647629 
   55000    302.49704   -111424.17   -110581.09   -36.386215    191540.79  0.055654334 
   55100    311.68073   -111439.03   -110570.36   -310.21587    191526.93  0.055658362 
   55200     311.3176   -111431.94   -110564.28   -438.10906    191483.28  0.055671052 
   55300    311.79939   -111432.24   -110563.23    13.864488    191367.43  0.055704754 
   55400    298.05149   -111395.46   -110564.78    162.34399    191210.05  0.055750601 
   55500    311.11403   -111434.98   -110567.89   -351.07199    191048.74  0.055797676 
   55600    302.17891   -111416.02   -110573.83   -212.65838    190897.23  0.055841958 
   55700    302.05976   -111424.63   -110582.77    209.67585    190744.33  0.055886723 
   55800    313.08555   -111466.47   -110593.89    152.86028    190568.81  0.055938195 
   55900    302.36288    -111450.9    -110608.2    52.855292    190373.44  0.055995602 
   56000    304.04474   -111470.48   -110623.09   -224.84592    190152.77  0.056060584 
   56100    296.07349   -111461.89   -110636.71    277.22678    189934.82  0.056124914 
   56200    292.88292   -111460.89   -110644.61    118.27673     189743.5  0.056181505 
   56300    306.60543      -111503   -110648.47    661.81734    189596.29  0.056225127 
   56400    312.67333   -111521.06   -110649.62    233.91616    189460.66  0.056265376 
   56500    299.90851   -111485.47   -110649.61    109.90483    189364.24  0.056294025 
   56600    294.56411   -111470.91   -110649.95    103.79565    189289.36  0.056316294 
   56700    300.83895   -111488.46   -110650.01    305.86599     189241.2  0.056330626 
   56800    302.44266   -111492.75   -110649.82   -110.39513     189213.7  0.056338813 
   56900     304.8968    -111500.8   -110651.04    36.365938    189211.21  0.056339554 
   57000    305.83901      -111506   -110653.61    160.82416    189208.71    0.0563403 
   57100    297.54774    -111485.4   -110656.11   -36.875366     189197.3  0.056343696 
   57200    300.63408   -111496.34   -110658.45   -4.8263757    189193.17  0.056344927 
   57300    294.57205   -111481.72   -110660.73    -203.7149    189184.88  0.056347397 
   57400    290.95152   -111473.08   -110662.18    164.58333    189152.71  0.056356981 
   57500    302.44105   -111505.38   -110662.46    137.78736    189111.31  0.056369317 
   57600    301.37227   -111500.73   -110660.79    74.035085    189095.39  0.056374063 
   57700    299.88007   -111494.27   -110658.49   -457.55097    189081.55  0.056378188 
   57800    293.42266   -111473.59    -110655.8   -79.885478    189014.26  0.056398259 
   57900    295.10935   -111474.57   -110652.08    103.11601    188922.17  0.056425752 
   58000    305.57668   -111500.45   -110648.79    41.377166    188822.52  0.056455528 
   58100    297.79624   -111473.75   -110643.77     35.25688    188730.59   0.05648303 
   58200    307.92739   -111496.76   -110638.55    72.039002    188632.61  0.056512368 
   58300    293.56034   -111452.45   -110634.28    382.25525    188542.31  0.056539432 
   58400    295.45631    -111452.1   -110628.64   -142.67379    188464.47  0.056562784 
   58500    297.46356   -111451.83   -110622.78   -103.40122    188377.01  0.056589047 
   58600    300.76097   -111454.79   -110616.56    68.195164     188278.5  0.056618656 
   58700    295.94126   -111436.09   -110611.28    93.446361    188169.18  0.056651548 
   58800    313.08665   -111479.12   -110606.53   -76.233917     188066.1    0.0566826 
   58900    316.46202   -111484.69    -110602.7   -185.70409    187960.67  0.056714392 
   59000    315.79628   -111481.51   -110601.37   -76.005781    187868.07  0.056742347 
   59100     307.4863   -111460.12   -110603.14   -686.87286    187777.33  0.056769769 
   59200    303.73746   -111454.65   -110608.12    137.01999    187666.83  0.056803195 
   59300    309.37132   -111479.03   -110616.79   -129.57843    187546.62  0.056839603 
   59400    309.26621   -111491.16   -110629.21    11.776823    187458.52  0.056866316 
   59500     298.5631   -111475.88   -110643.77   -102.22815    187410.03  0.056881028 
   59600    295.90558    -111482.8    -110658.1   -201.30495     187366.3  0.056894304 
   59700    292.29355   -111483.12   -110668.48   -81.332999    187271.67  0.056923055 
   59800    291.76401   -111488.77    -110675.6   -193.20237    187129.69  0.056966243 
   59900    288.23364   -111482.95   -110679.63    796.22095    186983.46  0.057010794 
   60000    299.22682   -111514.27    -110680.3   -307.26876       186869  0.057045713 
   60100     300.4405    -111515.4   -110678.05    5.7700681    186771.11  0.057075613 
   60200    292.88553   -111490.39    -110674.1   -104.77739    186684.97  0.057101947 
   60300    293.01199   -111485.29   -110668.65    -74.98211    186597.58   0.05712869 
   60400    305.91801   -111515.13   -110662.51    327.61832    186515.45  0.057153847 
   60500    298.75516   -111488.15    -110655.5   -263.26406    186459.42   0.05717102 
   60600    301.60777   -111487.85   -110647.26   -21.950406    186424.59  0.057181703 
   60700    304.16668   -111487.05   -110639.32    312.07888    186415.74  0.057184416 
   60800    302.60107   -111474.45   -110631.08   -406.78525    186428.49  0.057180505 
   60900    301.54696   -111464.24   -110623.81     383.1551    186438.91  0.057177309 
   61000    288.57156   -111419.08   -110614.82   -226.39582    186425.63  0.057181382 
   61100    296.33956   -111429.09   -110603.17    225.12782    186392.41  0.057191574 
   61200    314.27392   -111460.89   -110584.99   -48.972492    186375.59  0.057196736 
   61300     313.8891    -111438.7   -110563.87    293.84075    186335.96  0.057208899 
   61400    321.43224   -111441.99   -110546.14   -72.545993    186274.23   0.05722786 
   61500    319.92533   -111429.33   -110537.67   -162.08157     186233.6  0.057240345 
   61600    319.52019   -111428.36   -110537.84    24.926837    186230.91  0.057241172 
   61700    324.83005   -111448.16   -110542.84   -78.384844    186243.43  0.057237324 
   61800    312.04234   -111422.99   -110553.31   -77.106462    186253.92  0.057234099 
   61900      318.405   -111451.97   -110564.56    311.89502    186257.75  0.057232922 
   62000    313.00135   -111447.27   -110574.92    107.90787    186283.96  0.057224869 
   62100    319.82184   -111476.56    -110585.2   -89.534525    186308.24  0.057217411 
   62200    307.36207   -111452.22   -110595.58   -19.833901    186326.01  0.057211956 
   62300     305.4152   -111457.13   -110605.92   -149.73994    186366.73  0.057199454 
   62400    300.10765   -111450.51    -110614.1   -320.03477    186389.23  0.057192549 
   62500    301.90419   -111462.97   -110621.54   -298.32065    186370.31  0.057198357 
   62600    290.63489   -111438.66   -110628.65    283.73458    186310.56  0.057216699 
   62700     314.1128   -111510.62   -110635.17     -717.176    186265.35  0.057230586 
   62800    300.77742   -111481.24   -110642.96    -299.7092    186217.42  0.057245317 
   62900    304.94537   -111500.79   -110650.89      158.205    186166.28  0.057261043 
   63000    285.16271   -111451.73   -110656.96   -161.59105    186108.56  0.057278803 
   63100    296.64708   -111486.29   -110659.52   -180.29266    186050.69   0.05729662 
   63200    300.02047   -111497.95   -110661.78   -104.46898    185968.67  0.057321889 
   63300    292.96315   -111478.38   -110661.87   -316.55771    185874.88  0.057350812 
   63400    294.37717   -111482.16   -110661.72    34.994793    185767.92  0.057383835 
   63500    299.66817   -111493.48   -110658.29    689.38816     185639.6  0.057423498 
   63600    299.64745   -111488.11   -110652.98    55.156292    185494.54  0.057468406 
   63700    290.14302   -111455.23   -110646.59    169.05795    185342.33  0.057515601 
   63800    301.19505   -111477.53   -110638.08    164.67083    185184.99  0.057564469 
   63900    303.06818   -111471.48   -110626.81    94.639312    185065.11  0.057601758 
   64000    295.11279   -111435.84   -110613.35    794.57407    184979.06  0.057628553 
   64100    302.52038   -111443.91   -110600.77   -131.48387    184942.28  0.057640014 
   64200     310.8747      -111457   -110590.58   -41.609961    184931.09  0.057643501 
   64300    322.61492   -111482.75    -110583.6    417.64798    184920.32  0.057646857 
   64400    325.00838   -111484.77   -110578.95    122.27753    184903.67  0.057652049 
   64500     317.3189    -111463.8   -110579.42    79.607373     184901.7  0.057652662 
   64600    309.46037   -111445.63   -110583.15    535.04309    184924.09  0.057645684 
   64700    299.64229   -111428.35   -110593.23    564.21085    184973.14  0.057630397 
   64800    313.71013   -111482.65   -110608.32   -74.458955    185024.26  0.057614472 
   64900    289.73151   -111432.45   -110624.95   -250.46732    185090.28  0.057593923 
   65000    304.73986   -111487.95   -110638.63    213.72884    185155.37  0.057573676 
   65100    306.92598   -111503.62    -110648.2   -105.09321    185217.23  0.057554448 
   65200    303.87723   -111501.43   -110654.51   -81.381644    185268.62  0.057538483 
   65300    301.47605   -111498.07   -110657.84    295.58431    185311.49  0.057525172 
   65400    302.17401   -111500.77   -110658.59   -688.42808    185339.76  0.057516398 
   65500    306.21686   -111512.37   -110658.93   -65.193827    185346.06  0.057514443 
   65600    291.72638   -111471.39   -110658.33    -232.1462    185343.58  0.057515214 
   65700    294.62781   -111480.55   -110659.41    132.49298    185311.79   0.05752508 
   65800     288.7857   -111462.99   -110658.13   -116.53367    185264.85  0.057539654 
   65900    302.29121   -111496.89   -110654.39   -179.14816    185224.38  0.057552227 
   66000    293.84551   -111466.96      -110648   -115.05602     185196.9  0.057560765 
   66100     300.2348   -111477.25   -110640.48   -492.64519    185190.68    0.0575627 
   66200    287.46967   -111432.43   -110631.23   -640.29765    185163.33  0.057571202 
   66300    304.99492   -111468.94   -110618.91   -84.722547    185111.25  0.057587398 
   66400    313.06078   -111477.95   -110605.43     21.38843    185047.88   0.05760712 
   66500    302.44388   -111437.63    -110594.7    18.143308    185001.48  0.057621569 
   66600    309.80154   -111450.69   -110587.26    258.52872    184974.62  0.057629934 
   66700    314.84436   -111462.15   -110584.66    21.556601    184944.45  0.057639336 
   66800    310.10801    -111450.9   -110586.61    -348.5926    184914.76  0.057648591 
   66900    302.59502    -111434.3   -110590.95   -9.7129063     184874.8  0.057661053 
   67000    308.57112   -111457.22   -110597.22    8.2041662    184828.18  0.057675595 
   67100    319.50927   -111494.52   -110604.03    107.70419     184775.7  0.057691976 
   67200    317.82073   -111497.54   -110611.76    139.54834    184739.67  0.057703228 
   67300    304.32638   -111467.05   -110618.87    -555.3356    184720.65  0.057709169 
   67400    312.24169   -111494.44    -110624.2   -288.20673    184688.94  0.057719079 
   67500    302.16542   -111471.14   -110628.99   -92.084529    184667.74  0.057725706 
   67600    304.05969   -111479.73    -110632.3   -106.08684    184643.66  0.057733231 
   67700    293.98865    -111454.6   -110635.24   -120.14315    184601.35  0.057746466 
   67800    302.37176   -111479.56   -110636.83    172.29261    184517.82  0.057772606 
   67900    305.34888   -111488.63    -110637.6    104.68958    184466.34  0.057788728 
   68000    296.60603   -111465.84   -110639.18   -132.75433    184457.32  0.057791555 
   68100    304.24057   -111488.99   -110641.06   -192.70785    184461.38  0.057790284 
   68200    297.96033   -111472.76   -110642.33    26.790421    184481.93  0.057783846 
   68300    299.20068   -111476.58   -110642.69    235.78542    184514.14  0.057773757 
   68400    306.18952   -111497.89   -110644.52   -323.45593    184559.42  0.057759584 
   68500    290.93523   -111456.47   -110645.61    177.77206    184587.49  0.057750802 
   68600    307.96023   -111506.04   -110647.74   -24.752722    184629.89  0.057737539 
   68700    301.63134   -111493.73   -110653.06     99.40771    184650.84  0.057730987 
   68800    297.92946   -111489.08   -110658.73   -792.57862    184650.58  0.057731069 
   68900    290.09388   -111473.29   -110664.78    266.74681    184607.98   0.05774439 
   69000    282.93452    -111457.3   -110668.75   -265.35534     184562.1  0.057758745 
   69100    288.84464   -111475.59   -110670.56   -247.92008    184493.46  0.057780235 
   69200    291.94569    -111482.5   -110668.83   -188.44142     184371.6  0.057818424 
   69300    288.25123   -111468.77    -110665.4   -245.72886    184210.82  0.057868889 
   69400    294.27539   -111477.07   -110656.91    125.50575    184061.52  0.057915827 
   69500     298.1213   -111477.42   -110646.54    314.27706    183949.04  0.057951242 
   69600    305.05619   -111486.17   -110635.96    53.305465    183870.53  0.057975988 
   69700    309.70079   -111488.26   -110625.11    204.87681     183817.6   0.05799268 
   69800    302.67824   -111459.47   -110615.89   -15.711312     183752.6  0.058013194 
   69900    307.07391    -111465.3   -110609.47    237.08231    183693.58  0.058031833 
   70000    300.24786   -111442.17   -110605.37   -60.848566    183678.43  0.058036619 
   70100    297.00305   -111430.57   -110602.81   -117.51697     183693.9  0.058031734 
   70200    306.48285   -111455.96   -110601.78   -406.56288     183686.2  0.058034165 
   70300     307.2739   -111457.99    -110601.6   -31.218579    183667.88  0.058039955 
   70400    316.26488   -111486.38   -110604.93    479.70972    183668.14  0.058039871 
   70500    305.73785   -111463.92   -110611.81    219.56262    183692.73  0.058032102 
   70600    304.05563   -111470.49   -110623.07    231.11169    183733.56  0.058019207 
   70700    305.48925   -111493.15   -110641.73   -7.5125767    183790.43  0.058001254 
   70800     300.8298   -111500.42   -110661.99    166.37059    183835.11  0.057987158 
   70900     292.1291   -111490.32   -110676.14   -183.12064    183863.83    0.0579781 
   71000    295.47392   -111508.38   -110684.88    14.260472    183898.95  0.057967027 
   71100    287.28632   -111490.14   -110689.45   -393.75499    183949.23  0.057951183 
   71200    285.61705   -111486.05   -110690.02   -208.51774    183970.32  0.057944539 
   71300    287.93265   -111489.48      -110687   -404.10295    183968.67   0.05794506 
   71400    298.47219   -111515.07   -110683.21    267.49415    183942.91  0.057953173 
   71500    301.77178   -111517.85    -110676.8   -536.79792    183934.28  0.057955893 
   71600    299.11583   -111501.91   -110668.26   -301.04812    183922.64  0.057959561 
   71700    296.11265   -111484.49   -110659.21   -652.39759     183921.7  0.057959856 
   71800    296.57903   -111476.93   -110650.34    411.97516    183906.26  0.057964723 
   71900    300.10439    -111478.1   -110641.69   -223.09963    183911.33  0.057963125 
   72000    311.11573   -111500.93   -110633.84    -296.9414    183927.64  0.057957985 
   72100    303.22853   -111474.29   -110629.18    3.3792476     183911.8  0.057962978 
   72200    301.91131   -111468.23   -110626.79   -97.728643    183870.65  0.057975949 
   72300    310.18428   -111488.27   -110623.76   -232.64768    183817.83  0.057992609 
   72400    301.70757   -111462.87      -110622    14.384065    183754.09  0.058012726 
   72500    302.38353   -111465.93   -110623.17   -36.478222    183722.36  0.058022744 
   72600    302.95094   -111472.06   -110627.72    102.09987    183690.38  0.058032844 
   72700    302.86093   -111477.25   -110633.16    109.70505    183665.93  0.058040571 
   72800    303.77351   -111490.33    -110643.7    76.629396    183632.37  0.058051177 
   72900    297.95387   -111491.71    -110661.3    374.15649    183591.24  0.058064183 
   73000    284.91863   -111480.04   -110685.95    -297.1645    183544.11  0.058079094 
   73100    286.03189   -111502.88   -110705.69    105.83343    183491.18  0.058095847 
   73200    287.22616   -111515.11   -110714.59    148.09376    183437.64  0.058112803 
   73300    290.49621    -111525.8   -110716.17   -30.627313     183372.7  0.058133383 
   73400    285.33185   -111508.39   -110713.15    92.823079    183301.64   0.05815592 
   73500    292.41778   -111523.25   -110708.26   -223.44621    183204.22  0.058186842 
   73600    293.18201   -111517.75   -110700.63     168.7085     183086.9   0.05822413 
   73700    286.44537   -111489.43   -110691.09    174.49957    182958.22  0.058265082 
   73800     299.4879   -111515.43   -110680.74    548.27368     182831.2   0.05830556 
   73900    294.80536   -111493.17   -110671.53    80.601376    182721.05  0.058340708 
   74000    304.59132    -111510.4   -110661.49    24.582912    182633.25  0.058368756 
   74100    290.59414   -111461.79   -110651.88   -68.868284    182553.95  0.058394111 
   74200    304.24331    -111491.2   -110643.25   -179.97634    182483.57  0.058416632 
   74300    301.99506   -111479.12   -110637.44    105.84348    182449.29  0.058427605 
   74400    300.25893   -111468.34    -110631.5    300.02433     182452.2  0.058426676 
   74500    289.98755   -111434.44   -110626.23    347.64175    182484.34  0.058416384 
   74600    294.45902   -111440.81   -110620.14     -50.2253    182517.85  0.058405658 
   74700    295.18172   -111437.77   -110615.08    160.26955    182552.32  0.058394632 
   74800      316.031   -111492.71   -110611.91    539.37938    182603.51  0.058378262 
   74900     308.4553   -111470.83   -110611.15   -22.107893    182696.48  0.058348554 
   75000    304.90263   -111461.51   -110611.72   -472.27826    182785.85  0.058320025 
   75100    305.79143   -111466.88   -110614.62   -533.08337    182822.37  0.058308376 
   75200    313.48824   -111494.08   -110620.38    217.27523    182809.76  0.058312397 
   75300    293.41556   -111444.73   -110626.96     142.6484    182771.91  0.058324472 
   75400    300.43409   -111473.07   -110635.74   -113.62838    182733.96  0.058336587 
   75500    301.62108   -111488.02   -110647.39    251.33935     182684.6  0.058352347 
   75600    291.44771   -111472.06   -110659.78    62.914676    182641.37   0.05836616 
   75700    295.68991   -111496.92   -110672.82   -20.069345    182573.04  0.058388004 
   75800    289.85922   -111492.74   -110684.89    227.75528    182526.15  0.058403003 
   75900    291.21883   -111504.43   -110692.79    228.93628    182493.71  0.058413385 
   76000    290.60285   -111507.44   -110697.51    60.470839    182449.93  0.058427401 
   76100    293.94813   -111518.44   -110699.19   -226.84061    182367.63   0.05845377 
   76200    287.28248   -111497.67      -110697    85.795388    182242.88  0.058493781 
   76300    294.61105   -111515.28   -110694.19    68.470081    182060.85  0.058552267 
   76400    291.26547   -111502.66   -110690.89   -203.56719    181847.96  0.058620815 
   76500    298.31049   -111517.46   -110686.06   -102.42615    181616.43  0.058695545 
   76600    299.99354   -111515.91   -110679.81   -495.28997    181397.71  0.058766317 
   76700     289.2882   -111477.65   -110671.39    167.61326    181192.79  0.058832779 
   76800     299.7094   -111496.88   -110661.58    348.43035    181029.21   0.05888594 
   76900    301.58799   -111492.68   -110652.14    98.422863    180892.52  0.058930437 
   77000    304.88681   -111492.62   -110642.88    573.71045    180779.08  0.058967416 
   77100    303.49949   -111479.33   -110633.45   -401.13587    180722.37  0.058985922 
   77200    300.84325   -111465.18   -110626.71   -243.44876    180647.66  0.059010314 
   77300    302.90714    -111466.5   -110622.29    32.348823    180555.19  0.059040536 
   77400    303.19784   -111466.27   -110621.24    814.47173    180473.05  0.059067409 
   77500    299.28063   -111456.54   -110622.43    2.3100512    180430.82  0.059081234 
   77600    306.77783   -111481.04   -110626.03    287.40597    180383.28  0.059096805 
   77700    298.66996   -111464.24   -110631.83   -63.922754       180325  0.059115905 
   77800     310.6812   -111506.88      -110641    -374.3087    180264.09  0.059135879 
   77900    304.44751   -111500.88   -110652.37     138.1162    180220.47  0.059150191 
   78000    294.46336   -111485.89   -110665.21    162.78757    180196.54  0.059158046 
   78100    298.69998   -111510.71   -110678.21    459.21851    180187.78  0.059160922 
   78200    287.87668   -111491.36   -110689.03    -366.6126    180181.47  0.059162996 
   78300    298.42551   -111528.55   -110696.83    360.23634    180158.52  0.059170531 
   78400     279.1394   -111478.67    -110700.7   -54.074035    180145.07  0.059174948 
   78500    293.74517   -111520.75   -110702.07   -724.14517    180115.17  0.059184771 
   78600    300.72771   -111538.18   -110700.04    158.26144    180073.69  0.059198406 
   78700    292.45728   -111510.13   -110695.03    91.917575    180025.29  0.059214321 
   78800    288.46012   -111491.72   -110687.76    507.90556    179999.67  0.059222748 
   78900    299.03116   -111513.21    -110679.8   -230.96716    179999.33  0.059222862 
   79000    304.24782   -111521.19   -110673.24    348.94147    180024.81   0.05921448 
   79100    293.54772   -111486.19   -110668.06   -404.12431    180054.27  0.059204792 
   79200    297.97093   -111494.86    -110664.4   -343.37356    180065.82  0.059200993 
   79300    299.97809   -111497.09   -110661.03     -225.792    180026.75  0.059213843 
   79400    295.46919   -111480.76   -110657.27    522.53586    179969.29  0.059232746 
   79500    292.22689   -111467.12   -110652.67    230.97394    179931.33  0.059245244 
   79600    303.96483   -111495.25   -110648.08    57.699245    179903.65  0.059254357 
   79700    305.09059   -111493.79   -110643.48    150.63835    179877.24  0.059263058 
   79800    305.22665   -111491.46   -110640.78    15.699586    179823.08  0.059280907 
   79900    303.62756    -111483.8   -110637.57    528.12242    179745.83  0.059306385 
   80000    298.74886   -111466.61   -110633.98   -193.17506    179668.39  0.059331947 
   80100    289.78176   -111436.64      -110629   -341.15197    179627.55  0.059345437 
   80200    295.21592   -111444.63   -110621.84    437.89089    179603.65  0.059353333 
   80300    299.79086   -111448.97   -110613.44    444.62458    179610.39  0.059351105 
   80400    310.28143   -111467.68   -110602.91   -524.04516    179617.13  0.059348881 
   80500    310.51718   -111458.19   -110592.76    267.01995    179578.75  0.059361563 
   80600    308.79773   -111444.14    -110583.5    638.31775    179496.43  0.059388787 
   80700    313.25258   -111448.48   -110575.43   -296.16588     179376.5  0.059428495 
   80800    313.30433   -111443.66   -110570.46    186.69519     179235.8  0.059475145 
   80900     318.4925   -111457.15   -110569.49   -271.00726    179054.31  0.059535429 
   81000    323.38921    -111473.6    -110572.3    198.73295    178879.36  0.059593659 
   81100    315.63811   -111464.95   -110585.25   -156.19719    178724.95  0.059645145 
   81200    313.13529   -111480.47   -110607.74   -365.52643    178569.67   0.05969701 
   81300    291.36127   -111442.98   -110630.93    65.947602    178387.17  0.059758083 
   81400    300.04943   -111482.56    -110646.3    -9.417585    178188.89  0.059824581 
   81500    299.77779   -111492.18   -110656.68    123.92555    177979.01  0.059895127 
   81600    303.46637    -111509.1   -110663.32   -66.596317    177755.94   0.05997029 
   81700    297.77351   -111497.51   -110667.59    439.93202    177533.83  0.060045317 
   81800    289.00798   -111475.53   -110670.05   -20.719921    177316.24  0.060119002 
   81900    288.08057   -111474.71   -110671.81    82.498298    177111.42  0.060188527 
   82000    300.18307   -111507.62   -110670.99   -296.86232    176907.87  0.060257778 
   82100    300.76341   -111509.06   -110670.81    761.57395       176723  0.060320814 
   82200    305.64293   -111522.38   -110670.54    -272.5025    176562.91  0.060375506 
   82300    298.16053   -111501.55   -110670.56    283.31148     176399.2   0.06043154 
   82400    304.73407   -111518.78   -110669.47   -525.64798    176227.85  0.060490299 
   82500    301.68544   -111509.15   -110668.34   -215.46451    176048.91  0.060551782 
   82600     291.1361   -111478.62   -110667.21    285.34409    175869.19  0.060613659 
   82700    299.42723   -111498.21   -110663.69    213.47353    175705.36  0.060670179 
   82800    301.94226   -111501.99   -110660.46    163.46565    175536.17  0.060728655 
   82900    297.71464   -111484.99   -110655.24   -278.95365     175372.1  0.060785468 
   83000     298.3902   -111480.76   -110649.13    306.76454    175232.26  0.060833977 
   83100    306.41355   -111494.82   -110640.83   -134.84729    175148.69  0.060863004 
   83200    310.37253   -111495.85   -110630.83    60.768264    175075.53  0.060888436 
   83300    307.48179    -111477.9   -110620.93   -4.6569981    174995.09  0.060916426 
   83400    307.80697   -111472.01   -110614.14   -115.06005    174887.73  0.060953823 
   83500    312.61732   -111479.72   -110608.44    554.18969    174788.66   0.06098837 
   83600    303.55042   -111451.59   -110605.58     335.9371    174727.38  0.061009759 
   83700    303.53169   -111451.58   -110605.62   -12.803954    174724.63  0.061010719 
   83800    312.60253   -111479.18   -110607.94    161.95248    174701.65  0.061018744 
   83900    302.08542   -111455.57   -110613.64   -823.06435    174622.25  0.061046489 
   84000    299.86954   -111460.45   -110624.69    485.86822    174509.24  0.061086023 
   84100    291.80687   -111453.17   -110639.89    78.455836    174370.81  0.061134519 
   84200    297.95044   -111486.96   -110656.55   -96.797259    174208.92  0.061191331 
   84300    299.28008   -111504.76   -110670.65   -546.54613    174024.48  0.061256183 
   84400    294.11815   -111500.16   -110680.44   -250.29491    173813.27   0.06133062 
   84500    289.48678   -111496.29   -110689.47    8.0941699    173566.52   0.06141781 
   84600     297.7132    -111524.6   -110694.86   -282.48749    173320.76  0.061504895 
   84700    300.00411   -111533.22   -110697.09   -284.23963    173087.71  0.061587709 
   84800    287.94348   -111500.09   -110697.58    215.82264    172888.04  0.061658838 
   84900    309.55815   -111558.51   -110695.75    255.28038    172694.98  0.061727766 
   85000    295.77426   -111518.22   -110693.88    401.26006    172529.94  0.061786814 
   85100    283.62132   -111481.11   -110690.64   -588.90274    172400.44  0.061833228 
   85200    301.80539   -111526.26   -110685.11    355.62811    172278.35  0.061877047 
   85300     302.8283   -111520.77   -110676.77   -357.47413    172154.76  0.061921467 
   85400    296.99157   -111494.19   -110666.45    170.25182    172019.13  0.061970291 
   85500    306.84222   -111507.75   -110652.56   -138.21015    171890.03  0.062016834 
   85600    292.90772   -111454.05    -110637.7   -292.06328    171771.25  0.062059717 
   85700    301.88237   -111465.08   -110623.72   -325.67217     171673.5  0.062095054 
   85800    301.79553   -111455.28   -110614.16   -460.87052    171579.51  0.062129071 
   85900    308.86196    -111469.2   -110608.39    116.48589    171451.96  0.062175289 
   86000    324.19846   -111511.39   -110607.83    111.92063    171311.23  0.062226366 
   86100    308.37565   -111470.68   -110611.22   -90.310945    171184.12  0.062272571 
   86200    300.83909   -111453.45   -110614.99    -264.7883    171072.22  0.062313305 
   86300    307.02554   -111474.94   -110619.25   -298.78826     170970.5  0.062350379 
   86400    300.86539   -111463.16   -110624.63    55.686444    170873.06  0.062385932 
   86500    305.87882   -111483.44   -110630.93   -2.0514772    170773.79  0.062422198 
   86600    304.53709   -111485.84   -110637.07    -826.0331    170676.61  0.062457739 
   86700    297.41952   -111472.57   -110643.65    80.212695    170546.13  0.062505526 
   86800    292.11628   -111464.87   -110650.73   -290.57776    170402.25  0.062558303 
   86900    289.88522   -111464.44   -110656.51    687.09981    170244.23  0.062616369 
   87000    296.47777   -111487.23   -110660.92    70.883685    170085.24    0.0626749 
   87100     300.1372   -111500.71   -110664.21    557.20408    169926.14  0.062733582 
   87200    293.86189    -111485.4   -110666.39   -369.99653    169764.92  0.062793156 
   87300    300.79214    -111506.1   -110667.78    189.03199    169590.43  0.062857767 
   87400    292.67238   -111484.88   -110669.19   -246.12247    169382.98  0.062934748 
   87500    294.76069   -111491.25   -110669.73   -507.19335    169146.13  0.063022874 
   87600    292.18655    -111481.6   -110667.26     29.33049    168896.19  0.063116141 
   87700    300.48595   -111495.86   -110658.39   -167.32287    168664.38  0.063202885 
   87800    300.15498   -111483.27   -110646.72    622.64507     168457.5  0.063280503 
   87900    294.39424   -111453.38   -110632.88   -119.22802    168262.04  0.063354013 
   88000    303.71522   -111467.26   -110620.79    439.56269    168036.05  0.063439218 
   88100    311.62045   -111478.51      -110610    417.70754    167828.62  0.063517623 
   88200    307.06082   -111457.77   -110601.97   -26.752887    167660.08  0.063581477 
   88300    310.64807   -111461.79   -110595.99   -661.24966    167496.98  0.063643387 
   88400    310.36777   -111459.01      -110594   -152.13182     167303.8  0.063716875 
   88500     308.3848   -111454.15   -110594.66    315.21516    167100.68  0.063794325 
   88600    317.50298   -111483.63   -110598.73    466.02749    166912.81  0.063866129 
   88700    313.69841   -111481.14   -110606.84   -183.73167    166772.68  0.063919792 
[...]
  978700    300.63132   -111792.66   -110954.78    1216.9624    9718.3628    1.0969003 
  978800    297.89869   -111782.87   -110952.61    4132.6427    9710.1095    1.0978327 
  978900     296.3923   -111775.79   -110949.72    4732.6653    9702.0686    1.0987425 
  979000    293.41851   -111764.62   -110946.85     3182.029    9695.0435    1.0995387 
  979100    289.96152   -111751.17   -110943.03    -8547.408    9688.9117    1.1002345 
  979200    301.10943   -111776.99   -110937.78    479.28389     9684.019    1.1007904 
  979300    296.59813   -111760.74   -110934.11   -2369.5997    9679.7043    1.1012811 
  979400    299.37169   -111762.49   -110928.12   -91.079289    9675.2815    1.1017845 
  979500    306.03573   -111775.82   -110922.88   -10843.348    9671.4188    1.1022246 
  979600     299.6852   -111750.36   -110915.12   -3127.9557    9669.7293    1.1024171 
  979700    310.80389   -111770.73   -110904.51    6518.9095    9670.1728    1.1023666 
  979800     316.9949   -111773.33   -110889.84    9492.8629    9671.2331    1.1022457 
  979900    309.52669   -111737.03   -110874.36   -5268.0027    9672.6775    1.1020811 
  980000    303.24116   -111704.22   -110859.07    1738.2698    9673.5162    1.1019856 
  980100    305.18889   -111698.62   -110848.04    222.05439    9673.6044    1.1019755 
  980200    310.38431   -111707.71   -110842.65   -4343.3925    9672.9294    1.1020524 
  980300    314.80662   -111718.99   -110841.61    1907.0197     9671.292     1.102239 
  980400    321.15092   -111739.11   -110844.05    4376.0002    9669.1819    1.1024796 
  980500    316.06235   -111734.01   -110853.12   -2479.9876    9667.7871    1.1026386 
  980600    315.57454   -111745.89   -110866.36    8067.6774    9667.1701     1.102709 
  980700    305.52492   -111733.82   -110882.31   -4483.7971     9666.961    1.1027328 
  980800    312.82023   -111766.78   -110894.93   -3138.6919    9665.5314    1.1028959 
  980900    309.24569   -111766.02   -110904.14    -4581.421    9663.1642    1.1031661 
  981000    299.74051   -111745.86   -110910.46   -151.05509     9660.659    1.1034522 
  981100    297.73038   -111744.02   -110914.23   -6938.6008    9659.5361    1.1035805 
  981200    302.65464   -111760.43   -110916.92    2949.2219    9659.2297    1.1036155 
  981300     302.2366   -111761.66   -110919.31    481.04931    9658.6215     1.103685 
  981400    299.98866   -111758.81   -110922.72    2887.3313    9656.5781    1.1039185 
  981500    296.56053   -111753.09   -110926.56   -7179.7808     9653.485    1.1042722 
  981600    298.87048   -111764.69   -110931.72     3202.212    9648.8293    1.1048051 
  981700    293.97614   -111755.35   -110936.02    -6237.445    9644.3276    1.1053207 
  981800    295.41389   -111763.69   -110940.36   -2737.7451    9640.1449    1.1058003 
  981900    299.88579   -111780.26   -110944.46   -5980.2985    9637.2034    1.1061378 
  982000    303.92215   -111796.59   -110949.54    -1527.105    9635.3739    1.1063479 
  982100    295.71615   -111778.22   -110954.04   -1603.2698    9633.9583    1.1065104 
  982200    292.56741   -111773.74   -110958.34    11584.918     9633.476    1.1065658 
  982300    291.46644   -111774.72   -110962.39    1983.2343    9635.7371    1.1063062 
  982400    301.85549   -111807.25   -110965.97    5183.8393    9640.8983    1.1057139 
  982500    288.61743   -111774.63   -110970.23   -7392.2325    9647.9027    1.1049112 
  982600    291.93201   -111786.63      -110973    1579.0299    9654.2686    1.1041826 
  982700    300.23979   -111811.89   -110975.11    5838.3257    9659.0056    1.1036411 
  982800    296.06394   -111800.84   -110975.69   -5687.4353    9663.6593    1.1031096 
  982900    295.15981   -111798.55   -110975.92   -3345.5432    9668.2887    1.1025814 
  983000    289.83583   -111783.26   -110975.47    5760.0425     9673.325    1.1020074 
  983100    294.53933   -111793.06   -110972.16   -2592.5945    9679.5367    1.1013002 
  983200    292.97723    -111782.3   -110965.75   -159.31623    9685.2716    1.1006481 
  983300    296.70425   -111783.25   -110956.32    11166.647    9690.9674    1.1000012 
  983400    291.37738   -111757.33   -110945.24   -9272.9515    9696.0441    1.0994252 
  983500    298.21401   -111763.58   -110932.44   -4864.0533    9699.7928    1.0990003 
  983600    295.59328   -111743.48   -110919.65     2776.293    9703.5197    1.0985782 
  983700    309.73241   -111772.97   -110909.73   -1029.1074    9707.1433    1.0981681 
  983800    306.47923    -111757.6   -110903.42    -1558.907    9710.8932    1.0977441 
  983900    311.21352   -111767.74   -110900.37    3114.4532     9713.921    1.0974019 
  984000    315.12965   -111778.18    -110899.9   -11392.691    9717.0944    1.0970435 
  984100    300.69909   -111741.05   -110902.98   -2199.4954    9719.7984    1.0967383 
  984200    304.20931      -111758   -110910.16    661.99901    9723.3783    1.0963345 
  984300    309.89198   -111783.32   -110919.63    7357.8143    9727.5726    1.0958618 
  984400    305.67266   -111783.44   -110931.51   -6718.2177    9733.3014    1.0952168 
  984500    301.39015   -111783.75   -110943.76   -5848.0438    9738.1961    1.0946663 
  984600    300.06295    -111791.1   -110954.81    784.89618    9742.2651    1.0942091 
  984700    305.50436   -111813.81   -110962.35     6853.689    9746.7613    1.0937044 
  984800    297.13629    -111794.6   -110966.47   -1433.9532    9751.6426    1.0931569 
  984900     300.4642   -111805.25   -110967.84   -4296.4132    9755.5224    1.0927222 
  985000    290.70109   -111778.14   -110967.94   -1553.2574     9758.469    1.0923922 
  985100    295.40234   -111791.18   -110967.87    4832.3851     9760.676    1.0921452 
  985200    283.12207    -111755.5   -110966.42   -5457.0349    9762.1576    1.0919794 
  985300    296.45863   -111789.55   -110963.31    329.94724    9762.4375    1.0919481 
  985400    295.29595   -111783.56   -110960.55   -3199.2214    9760.6605    1.0921469 
  985500    297.82072   -111786.44    -110956.4   -1052.0756    9756.7633    1.0925832 
  985600    303.15349   -111795.63   -110950.73   -5027.7408    9753.0351    1.0930008 
  985700    289.31114   -111750.61   -110944.28    2656.7063    9749.6622    1.0933789 
  985800    298.40377    -111767.6   -110935.93    -3997.557     9747.238    1.0936509 
  985900    298.16982    -111757.2   -110926.19    2530.2869    9745.6272    1.0938316 
  986000    298.18195   -111746.74   -110915.69   -4099.6016    9743.3686    1.0940852 
  986100    310.10832   -111768.68   -110904.39    361.51937    9738.0598    1.0946816 
  986200    303.26141   -111740.95   -110895.74    -2941.766    9732.6641    1.0952885 
  986300    297.59684   -111719.04   -110889.62   -1315.9206    9729.4032    1.0956556 
  986400    307.67688   -111742.86   -110885.35    1234.5607    9728.2297    1.0957878 
  986500    296.03647   -111710.55   -110885.48   -7949.1975    9726.3043    1.0960047 
  986600    302.62975   -111729.48   -110886.03   -9465.4355    9724.7742    1.0961772 
  986700    310.60251   -111756.21   -110890.55    -471.7369    9723.0918    1.0963668 
  986800     310.9175   -111761.21   -110894.67   -7180.8605    9722.7028    1.0964107 
  986900    305.32628   -111750.93   -110899.97    13195.254    9722.7346    1.0964071 
  987000    300.06083   -111740.81   -110904.52   -1306.0801    9722.7661    1.0964036 
  987100    308.90324   -111770.33    -110909.4   -5618.5954    9722.6482    1.0964169 
  987200     305.1584   -111766.11   -110915.62     -2839.64    9722.3718     1.096448 
  987300    294.63858   -111744.23   -110923.06    6367.2079    9721.8786    1.0965037 
  987400    295.59846   -111753.67   -110929.82   -11946.433    9721.0394    1.0965983 
  987500    289.67813   -111742.93   -110935.58   -3719.2466    9719.4889    1.0967732 
  987600    297.61084   -111770.07   -110940.61    4387.9891    9716.5127    1.0971092 
  987700    299.03732   -111778.89   -110945.46   -748.24354    9711.3868    1.0976883 
  987800    298.15068   -111781.15   -110950.19    1523.6966    9704.5473    1.0984619 
  987900    293.07928   -111770.12   -110953.29   -6067.7558    9698.2303    1.0991774 
  988000     305.5193   -111806.79   -110955.29    1678.0607      9692.24    1.0998567 
  988100    291.33582   -111767.83   -110955.86    495.72264    9685.7043    1.1005989 
  988200    290.44497   -111763.43   -110953.94     1214.049     9677.501    1.1015318 
  988300    293.79432   -111766.68   -110947.86    389.24921    9668.9055    1.1025111 
  988400    305.15289   -111787.35   -110936.87    644.09636    9660.6908    1.1034486 
  988500    305.02809   -111770.62   -110920.49   -4366.1282    9652.7056    1.1043614 
  988600    306.23384   -111756.52   -110903.02   -772.67739    9644.0031    1.1053579 
  988700    315.54343   -111766.69   -110887.25   -1266.8896     9635.493    1.1063342 
  988800    318.47595   -111764.88   -110877.27    72.306405    9627.4322    1.1072605 
  988900    306.83991   -111727.99   -110872.81   -1762.5837    9617.8696    1.1083614 
  989000    308.11597    -111730.6   -110871.86    8038.7212    9607.3181    1.1095787 
  989100    302.34611   -111715.07   -110872.41   -756.24636    9597.3699    1.1107288 
  989200    317.26515   -111762.44    -110878.2    11608.144    9588.1079    1.1118018 
  989300    298.24862   -111719.29   -110888.06    10404.412    9578.7778    1.1128847 
  989400    302.01836   -111742.43   -110900.69    575.01069    9569.4124    1.1139739 
  989500    312.44563   -111783.13   -110912.33    1030.3556      9561.91    1.1148479 
  989600     303.7446   -111770.18   -110923.62    4741.1912    9555.7685    1.1155644 
  989700    288.22766   -111736.92   -110933.61   -5056.0889    9549.7466    1.1162679 
  989800    296.06285   -111764.49   -110939.34    -215.5263     9542.829    1.1170771 
  989900    293.79796   -111761.61   -110942.78   -4484.1094    9534.1681    1.1180918 
  990000    298.17321   -111775.73   -110944.71    8377.1333    9524.9141    1.1191781 
  990100    290.89959   -111758.22   -110947.47    6555.2683    9516.8125    1.1201309 
  990200    293.78538    -111767.2    -110948.4   -711.51159    9509.6355    1.1209762 
  990300    295.23654   -111773.43   -110950.59    5067.2547    9502.7926    1.1217834 
  990400    307.11043   -111808.19   -110952.25   -1530.4921    9496.7914    1.1224923 
  990500    305.41883   -111805.19   -110953.97    5053.2747    9492.3709     1.123015 
  990600    303.91881   -111800.53   -110953.49   -3120.8206    9489.4477     1.123361 
  990700    304.20918   -111799.34    -110951.5     1212.074    9487.4046    1.1236029 
  990800    303.73546   -111794.85   -110948.32    126.11643     9485.064    1.1238802 
  990900    302.11581   -111786.03   -110944.01   -3446.0838    9484.5166     1.123945 
  991000    296.37614   -111763.63   -110937.61    9633.4269    9484.6803    1.1239256 
  991100    303.35057   -111773.89   -110928.44    2984.1673     9486.891    1.1236637 
  991200     309.5472   -111780.34   -110917.62   -2220.2498    9490.1226    1.1232811 
  991300    306.06226   -111760.44   -110907.42    2166.1072    9494.5421    1.1227582 
  991400    304.25723   -111746.38    -110898.4   -9779.9588    9499.6362    1.1221562 
  991500    302.91968    -111737.4   -110893.14   -9062.6559     9505.418    1.1214736 
  991600    299.78875   -111724.74   -110889.21   -546.91488     9510.796    1.1208395 
  991700    312.70899   -111756.96   -110885.43    -670.0941     9516.936    1.1201163 
  991800    310.36346   -111750.01   -110885.01     5313.408    9524.0981     1.119274 
  991900    307.17378   -111743.42   -110887.31    1083.7892    9532.8022     1.118252 
  992000    307.27388   -111750.37   -110893.98   -7534.4703    9542.0277    1.1171709 
  992100    308.59166   -111765.91   -110905.85   -5897.1859    9551.6739    1.1160426 
  992200    304.40791   -111770.61   -110922.21   -2146.1783    9560.8642    1.1149698 
  992300    296.50332   -111765.67   -110939.29    6352.3853    9568.3534    1.1140972 
  992400     293.8072   -111772.88   -110954.03    3613.8193    9575.6614    1.1132469 
  992500    283.17831   -111753.07   -110963.84   -2864.1424    9583.9123    1.1122885 
  992600    297.35798   -111796.86   -110968.11   -6056.1163    9592.6945    1.1112702 
  992700    291.52137   -111782.82   -110970.33    5401.5772     9600.747    1.1103381 
  992800    298.02299   -111799.22   -110968.61    9272.3512    9608.8644    1.1094001 
  992900    296.72317   -111792.32   -110965.34   -3504.7925    9618.1723    1.1083265 
  993000    298.40157   -111791.37   -110959.71    4601.8747    9627.4916    1.1072537 
  993100     300.7462   -111791.92   -110953.72    3738.1006    9635.5084    1.1063324 
  993200     296.0643   -111772.02   -110946.87   -3283.1856    9643.7469    1.1053873 
  993300    304.15831   -111788.06   -110940.36   -681.21446    9651.8669    1.1044574 
  993400    300.86552   -111772.63    -110934.1   -4837.4165    9658.7846    1.1036663 
  993500     299.9881   -111764.13   -110928.04   -5554.9142    9664.5187    1.1030115 
  993600    304.22411   -111769.87   -110921.98    283.87945    9669.9192    1.1023955 
  993700      308.868   -111777.07   -110916.24    4065.2828    9676.1435    1.1016864 
  993800    302.28998   -111752.22   -110909.72   -486.62011    9684.8837    1.1006921 
  993900    299.85474   -111736.46   -110900.75   -1787.8918    9695.7568    1.0994578 
  994000    315.73113   -111765.82   -110885.86   -4798.0455    9707.4692    1.0981313 
  994100    308.19745   -111729.96      -110871    3912.9241    9718.3019    1.0969072 
  994200    309.41463   -111722.43   -110860.08    7658.1517    9731.2132    1.0954518 
  994300    311.51047   -111721.74   -110853.54    1571.4177    9745.3824    1.0938591 
  994400    325.48397   -111760.49   -110853.35   -2803.7062    9758.6397    1.0923731 
  994500    313.60456   -111734.18   -110860.15    -172.0144    9771.4055     1.090946 
  994600    318.89032   -111762.37    -110873.6   -1323.5056    9785.5193    1.0893725 
  994700    315.93498   -111774.15   -110893.62    13531.967    9800.3446    1.0877245 
  994800    306.96943   -111767.71   -110912.17     2298.046    9816.3104    1.0859554 
  994900    295.75939   -111747.28   -110922.98    3850.3244    9830.2322    1.0844174 
  995000    295.45944   -111752.91   -110929.44    3088.6334    9841.3845    1.0831886 
  995100    292.70353   -111750.89   -110935.11    1006.5487    9851.3251    1.0820956 
  995200    294.24152   -111758.43   -110938.36    143.02945    9862.5364    1.0808655 
  995300    302.45103   -111783.95   -110941.01   -8055.2994    9873.8527    1.0796267 
  995400      302.797   -111784.71    -110940.8    2336.4392    9882.4725    1.0786851 
  995500    299.58083   -111775.98   -110941.03    151.02391    9887.1139    1.0781787 
  995600    297.57973   -111768.99   -110939.62    1929.2784    9890.1537    1.0778473 
  995700    296.71999   -111764.18    -110937.2    4525.8884    9891.4733    1.0777035 
  995800    294.85903   -111755.75   -110933.96   -1419.7247     9891.277    1.0777249 
  995900    308.89909   -111789.88   -110928.96    3231.9457    9888.8341    1.0779911 
  996000    303.08847   -111766.84   -110922.11    7998.8254    9885.5397    1.0783504 
  996100    307.89404   -111773.69   -110915.57   -4646.9277    9882.5288    1.0786789 
  996200    297.14823      -111736   -110907.83   -2700.3233    9878.8372     1.079082 
  996300      310.881    -111767.3   -110900.85   -6925.6919    9872.8746    1.0797337 
  996400    299.12102   -111727.39   -110893.72    11400.551    9864.8324    1.0806139 
  996500    311.30659   -111756.56   -110888.93   -94.698461    9857.3906    1.0814297 
  996600    303.62963   -111732.71   -110886.48   -4221.5326      9850.82    1.0821511 
  996700     303.4977   -111732.22   -110886.36   -5827.5667     9843.867    1.0829154 
  996800    309.19038   -111751.18   -110889.44   -13385.602     9835.901    1.0837925 
  996900    302.04734   -111737.08   -110895.26   -6790.4457    9826.8003    1.0847962 
  997000    299.85375   -111739.59   -110903.88    7372.7594    9815.9675    1.0859933 
  997100    299.53887   -111748.73    -110913.9   0.64248077    9805.9356    1.0871044 
  997200    305.57628   -111779.13   -110927.47    1314.5287    9795.3254    1.0882819 
  997300    295.62733   -111764.51   -110940.57   -3770.2219    9784.4131    1.0894956 
  997400     298.8731   -111785.94   -110952.97    5277.5099    9772.7029    1.0908011 
  997500    291.15026   -111772.66   -110961.21   -1303.5719      9760.68    1.0921447 
  997600    293.90923   -111786.04    -110966.9    2858.3662    9746.6988    1.0937114 
  997700    293.95969   -111787.51   -110968.23   -4050.5892    9731.4609     1.095424 
  997800    298.72816   -111800.93   -110968.36   -5824.1967    9716.4388    1.0971175 
  997900    297.07311   -111795.57   -110967.61   -1646.0804    9701.5974    1.0987959 
  998000     292.4512   -111779.78   -110964.71    828.99088     9687.023    1.1004491 
  998100    298.25325   -111790.22   -110958.97    2250.3423     9672.652     1.102084 
  998200    301.34259   -111792.37   -110952.51   -15264.107    9658.3438    1.1037167 
  998300    300.45738   -111782.27   -110944.88    42.946795    9643.5749     1.105407 
  998400    304.02315   -111781.87   -110934.54     4412.871    9628.5066    1.1071369 
  998500     317.7939   -111807.79   -110922.08    1291.2031    9615.2952    1.1086581 
  998600    320.25025   -111799.25   -110906.69    3339.8255    9603.3815    1.1100335 
  998700    311.31531   -111757.68   -110890.03    5411.2861    9592.6115    1.1112798 
  998800    310.86496   -111743.01   -110876.61    2908.1716    9582.8273    1.1124144 
  998900    304.35968   -111716.14   -110867.88   -2856.8215    9572.6145    1.1136012 
  999000    308.20277   -111721.87   -110862.89    3668.1841    9563.1097     1.114708 
  999100    308.34667   -111722.27   -110862.89    1805.4451    9555.8031    1.1155604 
  999200    306.35758   -111720.11   -110866.27   -1709.0539     9551.082    1.1161118 
  999300    327.54441   -111787.46   -110874.58    2487.6826    9548.1816    1.1164508 
  999400     303.6479   -111734.54   -110888.26   -5355.4651    9547.1401    1.1165726 
  999500    309.18657    -111764.9   -110903.18   -3661.3466    9546.8568    1.1166058 
  999600    306.53132   -111770.49   -110916.17    -7037.064    9545.9575     1.116711 
  999700     305.9876   -111776.03   -110923.22    6067.3021    9543.9471    1.1169462 
  999800    304.98694   -111779.41    -110929.4    6511.5396    9542.9832     1.117059 
  999900    305.05787   -111782.69   -110932.47   -3502.0767    9543.2323    1.1170298 
 1000000    309.00069   -111797.33   -110936.13    436.76276    9545.9952    1.1167065 
Loop time of 82110.2 on 1 procs for 1000000 steps with 936 atoms

Performance: 0.263 ns/day, 91.234 hours/ns, 12.179 timesteps/s
99.9% CPU use with 1 MPI tasks x no OpenMP threads

MPI task timing breakdown:
Section |  min time  |  avg time  |  max time  |%varavg| %total
---------------------------------------------------------------
Pair    | 67523      | 67523      | 67523      |   0.0 | 82.24
Neigh   | 180.23     | 180.23     | 180.23     |   0.0 |  0.22
Comm    | 17.153     | 17.153     | 17.153     |   0.0 |  0.02
Output  | 1.5323     | 1.5323     | 1.5323     |   0.0 |  0.00
Modify  | 14387      | 14387      | 14387      |   0.0 | 17.52
Other   |            | 1.066      |            |       |  0.00

Nlocal:    936 ave 936 max 936 min
Histogram: 1 0 0 0 0 0 0 0 0 0
Nghost:    8786 ave 8786 max 8786 min
Histogram: 1 0 0 0 0 0 0 0 0 0
Neighs:    574805 ave 574805 max 574805 min
Histogram: 1 0 0 0 0 0 0 0 0 0

Total # of neighbors = 574805
Ave neighs/atom = 614.108
Neighbor list builds = 10000
Dangerous builds not checked

Please see the log.cite file for references relevant to this simulation

Total wall time: 22:48:30
