LAMMPS (09 Jan 2020)
  using 4 OpenMP thread(s) per MPI task
package omp 0
using multi-threaded neighbor list subroutines
package omp 8
set 8 OpenMP thread(s) per MPI task
using multi-threaded neighbor list subroutines
units			real
atom_style		charge
boundary p p p
read_restart		restart.nvt1
  restoring atom style charge from restart
  orthogonal box = (-15 -15 -15) to (50 50 50)
  1 by 1 by 1 MPI processor grid
  pair style reax/c/omp stores no restart info
  936 atoms
  read_restart CPU = 0.000233351 secs
reset_timestep                 0

suffix USER-OMP
pair_style              reax/c lmp_control lgvdw yes
pair_coeff              * * ffield C H O N

neighbor		5.0 bin
neigh_modify		delay 0 every 5 check no


velocity		all create 50 4928459 dist gaussian
fix			qeq all qeq/reax 1 0.0 10.0 1e-6 reax/c
fix			bonds all reax/c/bonds 500 bonds.reax
fix			checkFourset all reax/c/checkFourset 10 dists/dists.reax 1000 100000
fix 1 all reax/c/species 10 10 100 species.out
WARNING: Resetting reneighboring criteria for fix reax/c/species (../fix_reaxc_species.cpp:97)

fix			nve all nve
fix			berendsen all temp/berendsen 300 300 10
thermo			100
thermo_style 		custom step temp pe etotal press vol density
thermo_modify           flush yes

timestep		0.25

dump			1 all custom 10000 dump/dump.nvt.*  id type xu yu zu

restart			500 restart.nvtbb restart.nvtbb
run			10000000
No /omp style for force computation currently active
Neighbor list info ...
  update every 100 steps, delay 0 steps, check no
  max neighbors/atom: 2000, page size: 100000
  master list distance cutoff = 15
  ghost atom cutoff = 15
  binsize = 7.5, bins = 9 9 9
  2 neighbor lists, perpetual/occasional/extra = 2 0 0
  (1) pair reax/c, perpetual
      attributes: half, newton off, ghost, omp
      pair build: half/bin/newtoff/ghost/omp
      stencil: half/ghost/bin/3d/newtoff
      bin: standard
  (2) fix qeq/reax, perpetual, copy from (1)
      attributes: half, newton off, ghost
      pair build: copy
      stencil: none
      bin: none
Per MPI rank memory allocation (min/avg/max) = 48.04 | 48.04 | 48.04 Mbytes
Step Temp PotEng TotEng Press Volume Density 
       0           50   -111109.24   -110969.89    232.05616       274625  0.038816842 
     100    265.37613   -111003.54   -110263.93    262.37128       274625  0.038816842 
     200    291.38865   -110934.68   -110122.56    226.81755       274625  0.038816842 
     300     296.2325   -110917.03   -110091.41   -34.854204       274625  0.038816842 
     400    305.78951   -110928.31   -110076.05   -29.057461       274625  0.038816842 
     500    301.27915   -110932.84   -110093.16     269.2783       274625  0.038816842 
     600    302.64292   -110948.47   -110104.99   -74.962997       274625  0.038816842 
     700    302.10684   -110946.76   -110104.77    266.76075       274625  0.038816842 
     800    305.59398   -110955.81    -110104.1    16.059661       274625  0.038816842 
     900    296.24728   -110925.82   -110100.16   -45.940557       274625  0.038816842 
    1000    300.28126   -110907.18   -110070.28    29.833813       274625  0.038816842 
    1100     300.0338   -110913.01    -110076.8    43.904849       274625  0.038816842 
    1200    292.04562   -110908.18   -110094.23   -223.39764       274625  0.038816842 
    1300    298.56815   -110905.75   -110073.62   -26.515597       274625  0.038816842 
    1400    301.21567   -110924.22   -110084.72    156.84258       274625  0.038816842 
    1500    303.50206      -110968   -110122.12   -68.781768       274625  0.038816842 
    1600    299.08248   -110953.34   -110119.78   -8.0724603       274625  0.038816842 
    1700    302.27156   -110968.74   -110126.29    105.13375       274625  0.038816842 
    1800       296.75   -110939.12   -110112.06    513.84034       274625  0.038816842 
    1900    298.79699   -110931.68   -110098.91    161.16147       274625  0.038816842 
    2000    307.69625   -110958.41   -110100.84   -84.561894       274625  0.038816842 
    2100    310.14968    -110981.8    -110117.4    86.701392       274625  0.038816842 
    2200    296.14601   -110928.89   -110103.51   -36.012516       274625  0.038816842 
    2300    300.77827   -110907.26   -110068.98    97.251161       274625  0.038816842 
    2400     299.2344   -110927.85   -110093.87    99.474975       274625  0.038816842 
    2500    301.98003      -110933   -110091.36    76.408986       274625  0.038816842 
    2600    305.86689   -110941.47      -110089    197.18158       274625  0.038816842 
    2700     303.9751    -110955.7    -110108.5    10.837174       274625  0.038816842 
    2800    296.18817   -110933.01   -110107.51   -35.037489       274625  0.038816842 
    2900    308.76694   -110982.93   -110122.38    265.75647       274625  0.038816842 
    3000    302.36406   -110977.91   -110135.21    225.90321       274625  0.038816842 
    3100    301.45216   -110955.42   -110115.25    423.82465       274625  0.038816842 
    3200    302.11729    -110976.7   -110134.68   -125.38662       274625  0.038816842 
    3300    302.51241   -110972.57   -110129.45   -310.60627       274625  0.038816842 
    3400    297.57848   -110948.51   -110119.14    245.96537       274625  0.038816842 
    3500    297.67263   -110950.66   -110121.03   -195.63433       274625  0.038816842 
    3600    301.06808    -110934.9   -110095.81   -27.415752       274625  0.038816842 
    3700    299.87741   -110937.77      -110102    40.284323       274625  0.038816842 
    3800    308.21235   -110965.16   -110106.15    421.57949       274625  0.038816842 
    3900    300.27451   -110942.51   -110105.63    37.605613       274625  0.038816842 
    4000     296.9288   -110930.75   -110103.19   -267.96612       274625  0.038816842 
    4100    306.86301   -110955.96   -110100.71     60.92763       274625  0.038816842 
    4200    300.38994   -110969.75   -110132.55   -281.69657       274625  0.038816842 
    4300     295.1561   -110950.47   -110127.86    24.191298       274625  0.038816842 
    4400    292.89172    -110915.4   -110099.09    10.486497       274625  0.038816842 
    4500    302.92592    -110948.7   -110104.42   -198.31078       274625  0.038816842 
    4600    298.68553   -110944.18   -110111.73   -60.889384       274625  0.038816842 
    4700    295.37398   -110936.42    -110113.2    28.716684       274625  0.038816842 
    4800    289.26657   -110908.87   -110102.67   -36.574258       274625  0.038816842 
    4900    310.73802   -110965.12   -110099.08     218.4594       274625  0.038816842 
    5000    291.89344    -110909.8   -110096.28   -169.33481       274625  0.038816842 
    5100    300.89744   -110936.75   -110098.14   -5.6861165       274625  0.038816842 
    5200    303.42508   -110960.03   -110114.36   -140.69884       274625  0.038816842 
    5300    296.20661   -110938.33   -110112.78   -121.88045       274625  0.038816842 
    5400    303.42982   -110961.12   -110115.44   -311.47544       274625  0.038816842 
    5500    293.95345   -110906.84   -110087.57    461.76883       274625  0.038816842 
    5600    299.00334   -110937.88   -110104.54   -209.62774       274625  0.038816842 
    5700    303.37997   -110937.31   -110091.77    259.74995       274625  0.038816842 
    5800    307.24337      -110948    -110091.7   -67.793012       274625  0.038816842 
    5900    301.23237   -110909.76   -110070.21   -22.469173       274625  0.038816842 
    6000    303.68559      -110924   -110077.61   -3.0612344       274625  0.038816842 
    6100    305.12918   -110949.82   -110099.41    41.024684       274625  0.038816842 
    6200    297.79867    -110920.2   -110090.22   -253.94164       274625  0.038816842 
    6300    298.45997      -110952   -110120.17     96.77175       274625  0.038816842 
    6400    299.44521   -110924.19   -110089.62    154.29766       274625  0.038816842 
    6500    292.23866   -110876.99    -110062.5   -87.103054       274625  0.038816842 
    6600    306.28619   -110922.25   -110068.61   -274.60389       274625  0.038816842 
    6700     302.5587   -110930.46   -110087.21    -203.2699       274625  0.038816842 
    6800    309.38553   -110954.61   -110092.34    261.49427       274625  0.038816842 
    6900    295.46023   -110913.47      -110090   -123.90435       274625  0.038816842 
    7000    303.21477   -110939.76   -110094.68     367.2661       274625  0.038816842 
    7100     301.6277   -110960.48   -110119.82   -155.01109       274625  0.038816842 
    7200    296.82655   -110939.26   -110111.99    -135.3649       274625  0.038816842 
    7300    298.69835   -110918.66   -110086.17    108.26753       274625  0.038816842 
    7400    307.56035    -110935.9   -110078.71    -53.62087       274625  0.038816842 
    7500    302.82883    -110938.8    -110094.8   -113.61199       274625  0.038816842 
    7600    303.44312   -110929.21   -110083.49    254.15299       274625  0.038816842 
    7700    298.08088   -110924.84   -110094.07    184.49551       274625  0.038816842 
    7800    298.42885   -110923.82   -110092.08    299.35672       274625  0.038816842 
    7900    300.21839    -110935.7   -110098.97    3.1118799       274625  0.038816842 
    8000    291.81529   -110912.37   -110099.07    265.69991       274625  0.038816842 
    8100     300.6066    -110937.1   -110099.29   -15.922312       274625  0.038816842 
    8200    304.24192   -110968.33   -110120.39    213.53355       274625  0.038816842 
    8300    301.03348   -110971.39   -110132.39    68.156502       274625  0.038816842 
    8400    300.89314   -110942.28   -110103.67    94.106944       274625  0.038816842 
    8500     297.8343   -110945.85   -110115.77   -64.396085       274625  0.038816842 
    8600    303.23854   -110960.84    -110115.7     63.95213       274625  0.038816842 
    8700     301.4283   -110970.07   -110129.97   -73.137637       274625  0.038816842 
    8800    295.09441   -110942.99   -110120.54   -35.090878       274625  0.038816842 
    8900    300.12831   -110986.02   -110149.54    277.33759       274625  0.038816842 
    9000    297.22951   -110980.96   -110152.56    128.53276       274625  0.038816842 
    9100    305.37997   -110999.88   -110148.77   -175.72628       274625  0.038816842 
    9200    307.92828   -111005.54   -110147.32    120.34823       274625  0.038816842 
    9300    298.43806   -110983.66    -110151.9   -261.27107       274625  0.038816842 
    9400     300.5608   -110968.76   -110131.08   -126.48458       274625  0.038816842 
    9500    295.30405   -110961.94   -110138.91    85.281523       274625  0.038816842 
    9600    301.24134   -110986.34   -110146.77   -152.31469       274625  0.038816842 
    9700    305.48367   -111011.32   -110159.92    31.877181       274625  0.038816842 
    9800     293.9962    -110966.3   -110146.92   -106.03175       274625  0.038816842 
    9900    301.13002    -110982.1   -110142.84    35.896114       274625  0.038816842 
   10000    297.74774   -110958.51   -110128.67   -107.66789       274625  0.038816842 
   10100     306.6988   -110975.79      -110121   -67.578655       274625  0.038816842 
   10200     311.8609   -110991.85   -110122.68   -97.149692       274625  0.038816842 
   10300    307.94276   -110997.02   -110138.77     -25.0673       274625  0.038816842 
   10400    295.64118   -110975.84   -110151.87   -79.921596       274625  0.038816842 
   10500    301.62871   -110997.63   -110156.97   -115.78643       274625  0.038816842 
   10600    294.91773   -110951.58   -110129.63   -72.474289       274625  0.038816842 
   10700    303.66412   -110993.98   -110147.65    179.53037       274625  0.038816842 
   10800    300.41406   -110981.47   -110144.19    -6.300672       274625  0.038816842 
   10900    302.48309    -110972.8   -110129.77    -236.0627       274625  0.038816842 
   11000    302.69864   -110988.27   -110144.63   -111.53744       274625  0.038816842 
   11100    297.98334   -110999.82   -110169.33    474.36429       274625  0.038816842 
   11200    303.15818   -111000.51   -110155.59    25.555823       274625  0.038816842 
   11300    300.07282   -110982.27   -110145.95    68.012459       274625  0.038816842 
   11400     291.6959   -110946.84   -110133.87    16.939624       274625  0.038816842 
   11500     301.2784   -110963.19   -110123.51    -39.60961       274625  0.038816842 
   11600    298.41192   -110959.17   -110127.48   -164.59897       274625  0.038816842 
   11700    298.80356   -110969.36   -110136.58   -56.677755       274625  0.038816842 
   11800    298.19255   -110957.44   -110126.36      212.578       274625  0.038816842 
   11900    303.53487   -110969.15   -110123.18    105.85966       274625  0.038816842 
   12000    301.95763   -110941.98   -110100.41    187.35206       274625  0.038816842 
   12100    291.07299   -110918.68   -110107.45   -86.030026       274625  0.038816842 
   12200    309.54731   -110988.64   -110125.92    45.764353       274625  0.038816842 
   12300    294.89195   -110959.53   -110137.65    -39.39663       274625  0.038816842 
   12400     310.8483   -111002.35      -110136    220.10765       274625  0.038816842 
   12500    291.98664   -110940.69   -110126.91   -19.099789       274625  0.038816842 
   12600     297.6662   -110949.17   -110119.56    442.42493       274625  0.038816842 
   12700    306.20918   -110982.59   -110129.17    218.99778       274625  0.038816842 
   12800    304.10645   -110996.23   -110148.67   -75.258624       274625  0.038816842 
   12900    298.63907   -110976.87   -110144.54    38.804805       274625  0.038816842 
   13000    295.19133   -110967.01   -110144.29    162.51517       274625  0.038816842 
   13100      294.784   -110964.26   -110142.68    92.526402       274625  0.038816842 
   13200    302.59353   -110981.72   -110138.37   -240.32023       274625  0.038816842 
   13300     294.3908   -110968.78   -110148.29    84.927951       274625  0.038816842 
   13400    304.62984   -111006.11   -110157.09    57.935744       274625  0.038816842 
   13500     295.5356    -110993.3   -110169.63    50.588951       274625  0.038816842 
   13600    299.58119   -110995.37   -110160.42   -45.081051       274625  0.038816842 
   13700    301.86985   -111006.77   -110165.44   -217.92541       274625  0.038816842 
   13800    304.56027   -111018.32   -110169.49   -33.410892       274625  0.038816842 
   13900    296.60301   -110977.55    -110150.9    215.20232       274625  0.038816842 
   14000    303.80956   -111004.92   -110158.19    133.42015       274625  0.038816842 
   14100    296.15554   -110959.46   -110134.06    -176.6107       274625  0.038816842 
   14200    299.53634   -110986.38   -110151.56   -75.615545       274625  0.038816842 
   14300    312.13531   -111006.52   -110136.59    53.397599       274625  0.038816842 
   14400    301.60114   -110993.05   -110152.47   -239.32536       274625  0.038816842 
   14500     299.4178   -110988.85   -110154.36    16.777728       274625  0.038816842 
   14600    295.30299   -110967.66   -110144.63   -142.77531       274625  0.038816842 
   14700    306.53934   -111002.69   -110148.34   -72.166654       274625  0.038816842 
   14800     294.5398   -110993.12   -110172.22   -42.929887       274625  0.038816842 
   14900    299.12499   -111006.41   -110172.73   -52.216343       274625  0.038816842 
   15000    302.61235   -110993.11   -110149.72   -63.163866       274625  0.038816842 
   15100    296.38229   -110990.84   -110164.81   -95.734678       274625  0.038816842 
   15200    297.04004   -110982.09   -110154.22    71.670076       274625  0.038816842 
   15300    299.82649   -110983.72   -110148.08   -78.894334       274625  0.038816842 
   15400    287.29667   -110959.23   -110158.51   -114.26432       274625  0.038816842 
   15500    302.54032   -110991.21   -110148.01   -129.44749       274625  0.038816842 
   15600    304.85977   -111003.69   -110154.03    45.530097       274625  0.038816842 
   15700     308.6573   -111011.99   -110151.74    187.42471       274625  0.038816842 
   15800    297.38155   -110999.23   -110170.41   -318.21031       274625  0.038816842 
   15900    291.95769   -110970.23   -110156.53   -90.157278       274625  0.038816842 
   16000    308.95672   -111024.62   -110163.54   -222.35434       274625  0.038816842 
   16100    301.64528   -111023.76   -110183.05   -212.71522       274625  0.038816842 
   16200    298.75033   -111007.43    -110174.8   -12.797874       274625  0.038816842 
   16300    291.32834   -110985.79   -110173.84     -49.5806       274625  0.038816842 
   16400    298.74872    -111005.2   -110172.57   -111.73274       274625  0.038816842 
   16500    303.36217   -111030.72   -110185.23   -11.127122       274625  0.038816842 
   16600    295.28447   -111009.24   -110186.26   -27.842199       274625  0.038816842 
   16700    302.38163   -111025.63   -110182.87    -93.68862       274625  0.038816842 
   16800    303.87336   -111036.03   -110189.11   -65.301097       274625  0.038816842 
   16900    301.04181    -111033.8   -110194.78      414.407       274625  0.038816842 
   17000    302.22732   -111023.96   -110181.63     16.86514       274625  0.038816842 
   17100    302.39646    -111026.7    -110183.9     128.3524       274625  0.038816842 
   17200    299.85809   -111020.36   -110184.63    237.59309       274625  0.038816842 
   17300    290.47848   -110995.87   -110186.29   -34.843623       274625  0.038816842 
   17400    300.03194   -111023.84   -110187.63    14.793944       274625  0.038816842 
   17500     296.6572   -110999.92   -110173.12   -38.854132       274625  0.038816842 
   17600    308.47287   -111020.95   -110161.22    83.338654       274625  0.038816842 
   17700    288.44016    -110965.7    -110161.8   -367.28344       274625  0.038816842 
   17800    297.38999   -110969.97   -110141.12   -58.832195       274625  0.038816842 
   17900    294.45747   -110961.01   -110140.34   -175.27917       274625  0.038816842 
   18000    306.01932   -110993.84   -110140.95   -41.667107       274625  0.038816842 
   18100    294.73822   -110981.71   -110160.26    -538.5185       274625  0.038816842 
   18200    299.12632   -110990.82   -110157.14    373.55111       274625  0.038816842 
   18300    297.40843   -110995.53   -110166.64   -81.335346       274625  0.038816842 
   18400    299.26039   -110992.29   -110158.24    160.20235       274625  0.038816842 
   18500    302.31267   -111004.05   -110161.49   -78.992586       274625  0.038816842 
   18600     303.8984    -111000.5   -110153.52     220.9297       274625  0.038816842 
   18700     299.7907   -110970.97   -110135.44    226.56161       274625  0.038816842 
   18800    298.18206   -110983.56   -110152.51    -393.4277       274625  0.038816842 
   18900    296.59318   -110975.91   -110149.29   -90.691381       274625  0.038816842 
   19000    307.35024   -111015.92   -110159.32   -235.12117       274625  0.038816842 
   19100    296.16313   -110993.69   -110168.27    241.43237       274625  0.038816842 
   19200    294.32897   -110982.85   -110162.54   -57.188945       274625  0.038816842 
   19300    296.96114    -110990.9   -110163.26    30.245786       274625  0.038816842 
   19400    302.37108   -111000.83    -110158.1    170.04663       274625  0.038816842 
   19500    297.50888   -110975.22   -110146.04    225.14409       274625  0.038816842 
   19600    291.27492   -110948.99   -110137.19   -222.21389       274625  0.038816842 
   19700     304.0393    -110992.3   -110144.92    42.663514       274625  0.038816842 
   19800    306.58729   -111015.63   -110161.15   -239.03827       274625  0.038816842 
   19900    306.49705   -111013.28   -110159.05    349.42095       274625  0.038816842 
   20000    302.06406   -111004.44   -110162.58   -25.854253       274625  0.038816842 
   20100    306.27214    -111004.8    -110151.2    199.82843       274625  0.038816842 
   20200    299.01708   -111005.98    -110172.6    321.72124       274625  0.038816842 
   20300     300.0431   -110989.54    -110153.3    364.35417       274625  0.038816842 
   20400    303.81621   -111015.24   -110168.48    57.528944       274625  0.038816842 
   20500    299.07738   -110995.21   -110161.66     44.97026       274625  0.038816842 
   20600    295.80231   -110974.37   -110149.95   -142.08801       274625  0.038816842 
   20700    303.57681   -110989.98    -110143.9   -65.393122       274625  0.038816842 
   20800    302.34163   -110978.05    -110135.4   -214.61871       274625  0.038816842 
   20900    303.00391   -110987.14   -110142.65   -227.31378       274625  0.038816842 
   21000    299.20437   -110965.73   -110131.83    153.47036       274625  0.038816842 
   21100    301.83271   -110992.91   -110151.69    265.61355       274625  0.038816842 
   21200    302.37352   -111013.55   -110170.81    160.72828       274625  0.038816842 
   21300    302.25046   -111011.24   -110168.85   -183.70286       274625  0.038816842 
   21400    291.03366   -110980.53    -110169.4    509.95861       274625  0.038816842 
   21500    301.43098   -110983.71   -110143.61   -14.364407       274625  0.038816842 
   21600    303.59548   -110982.01   -110135.88   -20.321084       274625  0.038816842 
   21700    299.52123   -110964.92   -110130.14   -157.20913       274625  0.038816842 
   21800    301.48209   -110971.65    -110131.4    298.41377       274625  0.038816842 
   21900    302.53206   -110985.71   -110142.53    29.404671       274625  0.038816842 
   22000    296.05376   -110978.87   -110153.75    99.054087       274625  0.038816842 
   22100    293.80701   -110979.26   -110160.41   -289.26374       274625  0.038816842 
   22200    297.20864   -110983.92   -110155.58    98.361665       274625  0.038816842 
   22300    300.82981   -110982.99   -110144.56    135.79724       274625  0.038816842 
   22400    300.62019   -110986.91   -110149.06   -23.193539       274625  0.038816842 
   22500    302.42446   -110993.39   -110150.52   -321.77431       274625  0.038816842 
   22600    296.69852    -110977.3   -110150.39    60.752417       274625  0.038816842 
   22700    300.50772   -110981.04    -110143.5   -235.09718       274625  0.038816842 
   22800    304.60622   -110990.08   -110141.13    61.707007       274625  0.038816842 
   22900    292.28529   -110948.38   -110133.76    95.622071       274625  0.038816842 
   23000    298.56302   -110986.45   -110154.34   -69.766438       274625  0.038816842 
   23100    305.15987   -111004.48   -110153.98    189.27032       274625  0.038816842 
   23200    301.72535   -110994.76   -110153.83   -233.69259       274625  0.038816842 
   23300    306.23155   -111016.27   -110162.78    240.58697       274625  0.038816842 
   23400    307.24288   -111023.91   -110167.61   -144.63908       274625  0.038816842 
   23500    301.08395   -111000.24    -110161.1   -126.59509       274625  0.038816842 
   23600    303.23509   -111014.31   -110169.17     161.7732       274625  0.038816842 
   23700    294.41123   -110970.93   -110150.39    52.439325       274625  0.038816842 
   23800    305.30872   -111002.25   -110151.34    421.21881       274625  0.038816842 
   23900    302.14345   -111003.49    -110161.4   -207.45142       274625  0.038816842 
   24000    298.63999    -111004.1   -110171.77   -23.869588       274625  0.038816842 
   24100    295.60979   -110987.13   -110163.25   -176.41696       274625  0.038816842 
   24200    295.07608   -110978.37   -110155.98   -114.70775       274625  0.038816842 
   24300    296.33144   -110973.55   -110147.66   -444.31503       274625  0.038816842 
   24400    304.66992    -111012.7   -110163.57   -20.613058       274625  0.038816842 
   24500    292.87418   -110976.28   -110160.02     9.061536       274625  0.038816842 
   24600    294.69564   -110981.09   -110159.75    242.20796       274625  0.038816842 
   24700    296.35035   -111011.77   -110185.83    -45.36035       274625  0.038816842 
   24800    306.30193   -111020.59   -110166.91   -116.94418       274625  0.038816842 
   24900    307.36614   -111030.71   -110174.07    115.30024       274625  0.038816842 
   25000    299.27462   -111000.44   -110166.35    -278.9111       274625  0.038816842 
   25100    307.29491   -111036.36   -110179.91   -251.11812       274625  0.038816842 
   25200      301.662   -111017.05    -110176.3   -216.02005       274625  0.038816842 
   25300    295.13658   -111006.32   -110183.76   -27.726614       274625  0.038816842 
   25400    293.89435   -111003.14   -110184.04    198.22674       274625  0.038816842 
   25500    297.86169   -110991.85   -110161.69    91.411404       274625  0.038816842 
   25600    299.65337    -110990.6   -110155.45   -225.53381       274625  0.038816842 
   25700    292.76011    -110994.1   -110178.16    29.597059       274625  0.038816842 
   25800    303.94245   -111007.27   -110160.16   -64.645912       274625  0.038816842 
   25900    303.33101   -110999.29   -110153.89    231.04379       274625  0.038816842 
   26000    307.67849    -111022.6   -110165.08   -425.79604       274625  0.038816842 
   26100     301.2208   -110997.05   -110157.53    145.36643       274625  0.038816842 
   26200    295.92004   -110994.36   -110169.62    80.902821       274625  0.038816842 
   26300    297.59099   -110983.89   -110154.49    114.05201       274625  0.038816842 
   26400    292.05182   -110967.21   -110153.25    195.02932       274625  0.038816842 
   26500    303.90841   -110999.67   -110152.66   -50.376038       274625  0.038816842 
   26600    301.33385   -110997.93    -110158.1    441.32179       274625  0.038816842 
   26700    301.23963   -110999.61   -110160.04   -485.08185       274625  0.038816842 
   26800    297.16962    -111005.5   -110177.27    165.97202       274625  0.038816842 
   26900    291.82057   -110986.32   -110172.99    134.44029       274625  0.038816842 
   27000    300.31725   -110999.56   -110162.56    61.025026       274625  0.038816842 
   27100    296.83349   -110993.03   -110165.73   -96.656567       274625  0.038816842 
   27200    302.71549   -110992.62   -110148.94    109.69486       274625  0.038816842 
   27300    297.35853   -110985.31   -110156.56   -14.704262       274625  0.038816842 
   27400    299.65021   -111001.42   -110166.28    166.03876       274625  0.038816842 
   27500    296.58899   -111004.74   -110178.13    343.05288       274625  0.038816842 
   27600    302.68616   -111016.86   -110173.26   -189.16507       274625  0.038816842 
   27700    306.33021   -111056.65   -110202.89    381.05654       274625  0.038816842 
   27800    288.83501   -110999.54   -110194.54   -349.07516       274625  0.038816842 
   27900    300.30108   -111021.73   -110184.77    42.975919       274625  0.038816842 
   28000    300.83076   -111054.48   -110216.05    109.57441       274625  0.038816842 
   28100     302.5707   -111046.74   -110203.46    226.66913       274625  0.038816842 
   28200    296.28779   -111002.69   -110176.91   -383.47042       274625  0.038816842 
   28300    293.25525      -110995   -110177.68    10.712224       274625  0.038816842 
   28400    299.99156   -111004.36   -110168.26    23.943467       274625  0.038816842 
   28500    300.63996   -111011.26   -110173.36   -235.08405       274625  0.038816842 
   28600    294.44676   -110993.08   -110172.44    80.094618       274625  0.038816842 
   28700    301.45297   -111031.59   -110191.42   -139.89627       274625  0.038816842 
   28800    302.31921   -111016.94   -110174.35    446.95038       274625  0.038816842 
   28900    299.95481   -111006.06   -110170.07   -38.516605       274625  0.038816842 
   29000    296.98988   -110986.68   -110158.96   -112.23479       274625  0.038816842 
   29100    301.33629   -111014.96   -110175.12    77.566358       274625  0.038816842 
   29200     307.5778   -111029.47   -110172.23   -258.72518       274625  0.038816842 
   29300    293.85743   -110995.37   -110176.37    440.36326       274625  0.038816842 
   29400    291.78559    -110984.6   -110171.38   -219.65659       274625  0.038816842 
   29500    303.84706   -111009.04    -110162.2   -111.36059       274625  0.038816842 
   29600    298.06989   -110997.35   -110166.61   -390.57459       274625  0.038816842 
   29700    296.12503   -110990.05   -110164.73    -150.9951       274625  0.038816842 
   29800    307.18987   -111008.29   -110152.13    144.59232       274625  0.038816842 
   29900    292.19795   -110967.29   -110152.91    -77.25304       274625  0.038816842 
   30000    302.42972    -110995.3   -110152.41    301.56939       274625  0.038816842 
   30100    294.34365    -113508.4   -112688.05    126.28729       274625  0.038816842 
   30200    294.19305   -113508.75   -112688.82   -433.62865       274625  0.038816842 
   30300    306.47261   -113559.87   -112705.71   -227.80411       274625  0.038816842 
   30400    301.86751   -113548.85   -112707.53    73.634741       274625  0.038816842 
   30500     307.1089   -113599.13    -112743.2   -140.57995       274625  0.038816842 
   30600     297.0294   -113574.38   -112746.54    61.745949       274625  0.038816842 
   30700    297.02315   -113581.82      -112754   -85.031353       274625  0.038816842 
   30800    308.76885   -113605.76   -112745.21    240.18617       274625  0.038816842 
   30900    300.54357   -113569.23    -112731.6   -45.349108       274625  0.038816842 
   31000    299.66542    -113543.4   -112708.22   -137.37253       274625  0.038816842 
   31100    305.46018   -113575.07   -112723.74    264.52011       274625  0.038816842 
   31200    306.48474   -113594.45   -112740.26    238.91919       274625  0.038816842 
   31300    308.51231   -113615.78   -112755.93   -85.970015       274625  0.038816842 
   31400    313.04851   -113637.88   -112765.39   -6.5739006       274625  0.038816842 
   31500    302.73789    -113605.6   -112761.85   -137.77774       274625  0.038816842 
   31600    303.51702   -113597.77   -112751.85   -43.835503       274625  0.038816842 
   31700    295.47799   -113588.12    -112764.6   -85.003951       274625  0.038816842 
   31800    304.47313   -113617.86   -112769.28   -209.47327       274625  0.038816842 
   31900    291.61402   -113563.98   -112751.23    432.54881       274625  0.038816842 
   32000    300.79059   -113599.16   -112760.84     144.4712       274625  0.038816842 
   32100    302.11869   -113620.73   -112778.71   -120.15351       274625  0.038816842 
   32200    293.87117   -113574.14   -112755.11   -93.481643       274625  0.038816842 
   32300    301.23443    -113603.8   -112764.24    111.89722       274625  0.038816842 
   32400    300.25599   -113599.46   -112762.63    313.64087       274625  0.038816842 
   32500    306.44088    -113611.8   -112757.73    180.88294       274625  0.038816842 
   32600    295.02036   -113568.29   -112746.05    94.861165       274625  0.038816842 
   32700    304.79223   -113603.65   -112754.18   -22.944387       274625  0.038816842 
   32800    298.73673   -113581.55   -112748.95   -91.138139       274625  0.038816842 
   32900    296.36844   -113585.85   -112759.85    99.870462       274625  0.038816842 
   33000     308.7843    -113615.6      -112755   -232.40211       274625  0.038816842 
   33100    308.98384    -113615.8   -112754.65    279.77327       274625  0.038816842 
   33200    301.46952   -113601.31   -112761.09   -381.20998       274625  0.038816842 
   33300    297.97318   -113594.23   -112763.76    90.435734       274625  0.038816842 
   33400    303.73857    -113618.9   -112772.36    40.282271       274625  0.038816842 
   33500    300.07328   -113572.31   -112735.99   -67.769313       274625  0.038816842 
   33600    298.95595   -113567.95   -112734.75    145.18425       274625  0.038816842 
   33700     298.8619   -113580.66   -112747.72   -223.38266       274625  0.038816842 
   33800    300.07563   -113579.72   -112743.39    15.513482       274625  0.038816842 
   33900    307.65098   -113589.24    -112731.8     246.8831       274625  0.038816842 
   34000    303.40086   -113588.37   -112742.78    209.00819       274625  0.038816842 
   34100    300.62119   -113587.27   -112749.42     45.05146       274625  0.038816842 
   34200    300.19883   -113568.92   -112732.25    181.84793       274625  0.038816842 
   34300    301.27868   -113553.94   -112714.26    72.036446       274625  0.038816842 
   34400    303.66506   -113558.11   -112711.78    -119.8734       274625  0.038816842 
   34500    303.44626   -113578.87   -112733.14     358.7876       274625  0.038816842 
   34600     291.4246   -113547.59   -112735.38    163.63991       274625  0.038816842 
   34700    300.71595   -113579.84   -112741.73    65.607402       274625  0.038816842 
   34800    294.87641   -113558.05   -112736.21   -146.33743       274625  0.038816842 
   34900    305.61744   -113573.27    -112721.5   -134.84185       274625  0.038816842 
   35000    300.59311   -113573.52   -112735.75    10.127654       274625  0.038816842 
   35100    293.94285   -113537.36   -112718.12    220.56905       274625  0.038816842 
   35200    296.12661   -113528.61   -112703.28    305.56767       274625  0.038816842 
   35300    298.46268   -113526.91   -112695.08    17.204481       274625  0.038816842 
   35400    302.32304   -113541.49    -112698.9     20.13001       274625  0.038816842 
   35500    298.63317   -113552.99   -112720.68    150.63418       274625  0.038816842 
   35600    300.67211   -113541.95   -112703.96   -47.696578       274625  0.038816842 
   35700    304.12151    -113560.5    -112712.9   -248.18503       274625  0.038816842 
   35800    296.30243   -113536.41    -112710.6    165.63264       274625  0.038816842 
   35900    300.19644   -113540.62   -112703.96    181.28156       274625  0.038816842 
   36000    299.72016   -113559.89   -112724.55    215.03433       274625  0.038816842 
   36100    307.53714   -113585.09   -112727.97   -55.761182       274625  0.038816842 
   36200    304.24022    -113586.3   -112738.36   -331.49645       274625  0.038816842 
   36300     294.8415   -113563.27   -112741.53    228.55928       274625  0.038816842 
   36400    298.34001   -113570.06   -112738.57    53.688186       274625  0.038816842 
   36500    299.73635   -113583.03   -112747.65    305.16246       274625  0.038816842 
   36600    304.27026   -113595.18   -112747.16   -177.11733       274625  0.038816842 
   36700    299.72918   -113592.61   -112757.25     230.9514       274625  0.038816842 
   36800    301.69433   -113571.74    -112730.9   -302.66843       274625  0.038816842 
   36900    298.72761   -113560.15   -112727.58   -186.29042       274625  0.038816842 
   37000    309.62057   -113605.37   -112742.44    146.59238       274625  0.038816842 
   37100    294.59418   -113561.41   -112740.35   -229.42568       274625  0.038816842 
   37200    296.84955   -113558.29   -112730.95    318.91658       274625  0.038816842 
   37300    302.24646   -113572.56   -112730.18    154.69507       274625  0.038816842 
   37400    300.94509   -113566.26   -112727.51    309.39128       274625  0.038816842 
   37500    301.26696   -113560.35    -112720.7    -104.5343       274625  0.038816842 
   37600    304.24231   -113571.94      -112724    222.79573       274625  0.038816842 
   37700    306.26898   -113578.46   -112724.87    321.99253       274625  0.038816842 
   37800    300.43935   -113574.48   -112737.14   -6.7965264       274625  0.038816842 
   37900    303.09997   -113606.91   -112762.15    21.407033       274625  0.038816842 
   38000    288.16352   -113552.64   -112749.51    177.08841       274625  0.038816842 
   38100    292.26359   -113552.76    -112738.2    96.836523       274625  0.038816842 
   38200    304.08445   -113591.08   -112743.58   -8.0029589       274625  0.038816842 
   38300    296.94303   -113558.34   -112730.74    212.70974       274625  0.038816842 
   38400    306.16523   -113594.25   -112740.95   -108.09615       274625  0.038816842 
   38500    303.58235   -113590.76   -112744.66     312.6584       274625  0.038816842 
   38600    297.76201   -113584.42   -112754.54    82.456867       274625  0.038816842 
   38700    311.09128   -113631.91   -112764.88   -43.341342       274625  0.038816842 
   38800    291.89993   -113574.33   -112760.79   -67.555144       274625  0.038816842 
   38900    301.42151   -113593.89   -112753.81    233.41026       274625  0.038816842 
   39000    298.78771   -113574.52   -112741.79   -35.023994       274625  0.038816842 
   39100    295.76541   -113572.44   -112748.13   -149.90866       274625  0.038816842 
   39200    301.45173   -113584.97    -112744.8    160.98929       274625  0.038816842 
   39300    305.85291   -113594.97   -112742.55     198.7741       274625  0.038816842 
   39400    302.14306   -113594.58   -112752.49   -10.396766       274625  0.038816842 
   39500    300.23513   -113606.16   -112769.39   -20.052322       274625  0.038816842 
   39600    291.91003   -113581.32   -112767.75   -191.91573       274625  0.038816842 
   39700    295.31941   -113576.29   -112753.22   -78.329216       274625  0.038816842 
   39800    303.40608   -113604.53   -112758.92   -15.355338       274625  0.038816842 
   39900    304.32392   -113607.72   -112759.55   -358.19463       274625  0.038816842 
   40000    303.19707   -113616.93    -112771.9   -163.38342       274625  0.038816842 
   40100    287.86085   -111001.68    -110199.4    95.478486       274625  0.038816842 
   40200     299.4796   -111019.15   -110184.49    385.70147       274625  0.038816842 
   40300    295.74987   -110995.62   -110171.35    79.767678       274625  0.038816842 
   40400    300.77784   -111018.31   -110180.02    137.26431       274625  0.038816842 
   40500    309.22469   -111042.22    -110180.4   -232.06164       274625  0.038816842 
   40600    299.35884   -110991.62   -110157.29    112.25143       274625  0.038816842 
   40700    305.88998   -111008.24    -110155.7   -123.48441       274625  0.038816842 
   40800    294.39105   -110984.26   -110163.77    185.94843       274625  0.038816842 
   40900    297.19614   -110992.83   -110164.53   -120.82265       274625  0.038816842 
   41000     298.4025   -110986.87    -110155.2    23.954254       274625  0.038816842 
   41100    301.39075   -111003.01   -110163.01    45.354003       274625  0.038816842 
   41200    292.67397   -110978.93   -110163.24   -30.385952       274625  0.038816842 
   41300    301.87491    -111007.5   -110166.15    -123.7019       274625  0.038816842 
   41400    300.36703    -110979.5   -110142.36    152.22413       274625  0.038816842 
   41500    306.34449   -110990.81   -110137.01   -47.263846       274625  0.038816842 
   41600    310.14508   -111030.62   -110166.23    456.27768       274625  0.038816842 
   41700    308.78428   -111029.31   -110168.71    -436.5489       274625  0.038816842 
   41800    304.03881   -111028.94   -110181.56   -21.488432       274625  0.038816842 
   41900    292.99324   -110962.77   -110146.18   -133.39267       274625  0.038816842 
   42000    297.26016   -110976.87   -110148.39    -132.6093       274625  0.038816842 
   42100    296.05215   -110961.06   -110135.95    86.770295       274625  0.038816842 
   42200    298.60919    -110966.5   -110134.26   -21.675191       274625  0.038816842 
   42300    308.04711   -111026.75    -110168.2    123.21506       274625  0.038816842 
   42400    304.83313    -111024.7   -110175.11    448.16248       274625  0.038816842 
   42500     292.2771    -110975.2   -110160.61    -340.6345       274625  0.038816842 
   42600    298.03796   -110977.81   -110147.16    151.43565       274625  0.038816842 
   42700    305.39115   -111012.54    -110161.4   -96.421858       274625  0.038816842 
   42800    300.02027   -111001.55   -110165.38    99.687794       274625  0.038816842 
   42900    297.61835   -110996.41   -110166.93   -64.423457       274625  0.038816842 
   43000    305.54506   -111029.96   -110178.39    32.690658       274625  0.038816842 
   43100    300.78708   -111010.18   -110171.87    -128.6578       274625  0.038816842 
   43200    301.22219   -111017.21   -110177.69   -330.81409       274625  0.038816842 
   43300    301.18857   -111013.86   -110174.43   -160.75981       274625  0.038816842 
   43400    299.81142    -111005.4   -110169.81    111.96717       274625  0.038816842 
   43500    306.86463   -111027.37   -110172.12   -273.17286       274625  0.038816842 
   43600    297.49785   -111011.38   -110182.24   -303.65985       274625  0.038816842 
   43700    294.50806   -111003.34   -110182.53    152.12201       274625  0.038816842 
   43800    290.62147   -110996.33   -110186.35   -198.24656       274625  0.038816842 
   43900    302.41065   -111037.78   -110194.95    475.59613       274625  0.038816842 
   44000    300.02395   -111031.14   -110194.96   -110.35111       274625  0.038816842 
   44100    305.05311   -111047.93   -110197.73   -66.398818       274625  0.038816842 
   44200    303.83647   -111026.93   -110180.12   -357.81027       274625  0.038816842 
   44300    301.73311    -111026.3   -110185.35    43.160136       274625  0.038816842 
   44400     301.0715   -111040.27   -110201.16   -101.36974       274625  0.038816842 
   44500    299.15153   -111045.93   -110212.18    52.201719       274625  0.038816842 
   44600    305.25991   -111063.35   -110212.58    425.42671       274625  0.038816842 
   44700    296.49112    -111046.3   -110219.96   -152.38118       274625  0.038816842 
   44800    300.34124   -111059.58   -110222.51   -25.794577       274625  0.038816842 
   44900    290.59318   -111004.69   -110194.79   -57.642255       274625  0.038816842 
   45000    297.48427   -111022.45   -110193.35   -33.044179       274625  0.038816842 
   45100    299.91728   -113397.54   -112561.65   -63.388695       274625  0.038816842 
   45200    304.77908    -113412.7   -112563.27    79.776778       274625  0.038816842 
   45300    301.23361   -113389.88   -112550.32    197.56526       274625  0.038816842 
   45400    297.87143   -113362.15   -112531.97   -145.05342       274625  0.038816842 
   45500    297.50518   -113368.79   -112539.62    30.192352       274625  0.038816842 
   45600    299.08931   -113389.22   -112555.65   -62.819922       274625  0.038816842 
   45700    300.46973   -113392.62   -112555.19    135.01306       274625  0.038816842 
   45800    299.50866   -113385.94    -112551.2     132.5186       274625  0.038816842 
   45900    307.03816   -113407.75   -112552.01    274.64578       274625  0.038816842 
   46000    292.55548   -113365.26   -112549.89    181.59243       274625  0.038816842 
   46100    305.53092   -113411.91   -112560.38   -93.736156       274625  0.038816842 
   46200    300.57758   -113391.78   -112554.06    60.616484       274625  0.038816842 
   46300    292.58085   -113344.79   -112529.35    377.07438       274625  0.038816842 
   46400    298.89187   -113366.61   -112533.58   -62.085194       274625  0.038816842 
   46500     301.8329   -113416.82   -112575.59     89.48048       274625  0.038816842 
   46600    303.06751   -113420.47   -112575.81    357.27976       274625  0.038816842 
   46700     299.6675   -113406.24   -112571.05   -181.94006       274625  0.038816842 
   46800    299.21927   -113398.12   -112564.18    -185.1293       274625  0.038816842 
   46900    302.49901   -113414.13   -112571.05   -185.05086       274625  0.038816842 
   47000    302.62666   -113419.08   -112575.64    22.414828       274625  0.038816842 
   47100    293.70692   -113386.84   -112568.26    44.649035       274625  0.038816842 
   47200    299.51686   -113398.12   -112563.35   -65.665323       274625  0.038816842 
   47300    309.14003   -113424.83   -112563.24    226.07778       274625  0.038816842 
   47400    289.52861    -113372.5   -112565.56   -107.82909       274625  0.038816842 
   47500    302.80453   -113411.35   -112567.42    32.657488       274625  0.038816842 
   47600    303.48453   -113411.67   -112565.85    -59.26968       274625  0.038816842 
   47700    303.21188   -113412.39   -112567.32    159.96256       274625  0.038816842 
   47800    297.75788   -113398.54   -112568.67   -165.80739       274625  0.038816842 
   47900    294.26676   -113391.55   -112571.41    133.56279       274625  0.038816842 
   48000    297.94059   -113375.38   -112545.01    29.088527       274625  0.038816842 
   48100     293.1917   -113364.38   -112547.24    219.60443       274625  0.038816842 
   48200    304.57967   -113388.06   -112539.18   -193.63945       274625  0.038816842 
   48300    307.69703   -113415.82   -112558.25   -288.15147       274625  0.038816842 
   48400    304.67604   -113413.03   -112563.88    48.026099       274625  0.038816842 
   48500    304.58477   -113408.55   -112559.66    247.57424       274625  0.038816842 
   48600    289.67551   -113347.28   -112539.94    -9.559845       274625  0.038816842 
   48700    300.56625   -113367.68   -112529.98    1.8068033       274625  0.038816842 
   48800     301.9777    -113390.5   -112548.87   -61.217517       274625  0.038816842 
   48900    299.98398   -113378.51   -112542.44    219.34231       274625  0.038816842 
   49000    305.64034   -113417.62   -112565.78   -95.680122       274625  0.038816842 
   49100    305.31287   -113428.33    -112577.4   -263.67874       274625  0.038816842 
   49200    293.66992   -113408.53   -112590.05    34.177162       274625  0.038816842 
   49300    294.97521    -113384.7   -112562.58    234.57469       274625  0.038816842 
   49400    297.63238   -113383.69   -112554.17    461.12425       274625  0.038816842 
   49500    297.39339   -113382.27   -112553.41    -393.2724       274625  0.038816842 
   49600    292.61569   -113370.79   -112555.25    157.43151       274625  0.038816842 
   49700    294.87873   -113357.81   -112535.96    159.94579       274625  0.038816842 
   49800     296.7896   -113362.35   -112535.18    275.63497       274625  0.038816842 
   49900    301.10825    -113369.9   -112530.69    53.532946       274625  0.038816842 
   50000    307.99002   -113389.74   -112531.35    283.37386       274625  0.038816842 
   50100     292.9187   -113329.55   -112513.17   -160.74983       274625  0.038816842 
   50200    306.02228   -113380.01    -112527.1   -238.60976       274625  0.038816842 
   50300    299.38827   -113372.67   -112538.26   -86.472877       274625  0.038816842 
   50400    299.19513   -113357.91   -112524.04   -188.42873       274625  0.038816842 
   50500    295.77289   -113366.98   -112542.64    148.45537       274625  0.038816842 
   50600     301.7799    -113385.1   -112544.02    19.638423       274625  0.038816842 
   50700     303.4835   -113400.32   -112554.49    121.65132       274625  0.038816842 
   50800    302.80081   -113405.08   -112561.16    43.500595       274625  0.038816842 
   50900    305.33739   -113409.55   -112558.56    254.04088       274625  0.038816842 
   51000     299.2503   -113395.85   -112561.83   -161.22724       274625  0.038816842 
   51100    291.34957   -113369.89   -112557.88    197.88508       274625  0.038816842 
   51200    301.90048   -113392.63   -112551.22   -248.15353       274625  0.038816842 
   51300     302.7092   -113388.65   -112544.98    327.46719       274625  0.038816842 
   51400    296.07386   -113365.88   -112540.71    319.14943       274625  0.038816842 
   51500    305.89336   -113413.68   -112561.14    234.56872       274625  0.038816842 
   51600    301.12955    -113399.3   -112560.03   -67.111969       274625  0.038816842 
   51700    305.55584   -113412.06   -112560.46   -193.44048       274625  0.038816842 
   51800    293.45309   -113380.45   -112562.58    295.60442       274625  0.038816842 
   51900    304.20369   -113415.92   -112568.09    433.19598       274625  0.038816842 
   52000    296.58788   -113384.25   -112557.64   -263.13582       274625  0.038816842 
   52100    304.80387   -113409.73   -112560.23   -200.04116       274625  0.038816842 
   52200    299.45824   -113418.57   -112583.96    201.82661       274625  0.038816842 
   52300    302.26569   -113441.85   -112599.42   -118.44562       274625  0.038816842 
   52400     298.3549   -113423.36   -112591.83    254.39851       274625  0.038816842 
   52500    298.59991   -113404.93   -112572.72   -239.34206       274625  0.038816842 
   52600    297.48151   -113400.25   -112571.15    57.268461       274625  0.038816842 
   52700    295.30302   -113392.12    -112569.1    57.934781       274625  0.038816842 
   52800    303.18509   -113420.27   -112575.28   -26.807496       274625  0.038816842 
   52900    309.13552   -113452.81   -112591.23   -116.24305       274625  0.038816842 
   53000    303.98795    -113444.6   -112597.37    215.90546       274625  0.038816842 
   53100    296.04214   -113419.21   -112594.13    -266.0477       274625  0.038816842 
   53200    300.92847   -113432.98   -112594.28    220.06907       274625  0.038816842 
   53300    301.58811   -113434.07   -112593.52    156.44793       274625  0.038816842 
   53400    296.98581   -113420.17   -112592.45     109.1953       274625  0.038816842 
   53500    299.80541   -113407.37    -112571.8    21.608066       274625  0.038816842 
   53600    300.60182    -113416.8   -112579.01    -25.10416       274625  0.038816842 
   53700    300.82556   -113414.48   -112576.06   -48.528345       274625  0.038816842 
   53800    299.97677   -113401.78   -112565.73    87.048121       274625  0.038816842 
   53900    298.59938   -113398.45   -112566.23   -28.565582       274625  0.038816842 
   54000    297.33415   -113407.48    -112578.8    37.723679       274625  0.038816842 
   54100    300.50943   -113448.85   -112611.31   -162.35975       274625  0.038816842 
   54200    303.59547   -113445.68   -112599.54   -219.72764       274625  0.038816842 
   54300    299.26937   -113441.06   -112606.98     150.2486       274625  0.038816842 
   54400    301.57088   -113431.93   -112591.44    241.50435       274625  0.038816842 
   54500    304.84297      -113448   -112598.38   -96.153753       274625  0.038816842 
   54600    297.16525   -113422.14   -112593.92   -129.46007       274625  0.038816842 
   54700    304.85195   -113449.16   -112599.52    25.893814       274625  0.038816842 
   54800    297.75144   -113430.35    -112600.5    167.36667       274625  0.038816842 
   54900    299.63813   -113441.32   -112606.21    51.074324       274625  0.038816842 
   55000    302.88353   -113444.67   -112600.52    69.521187       274625  0.038816842 
   55100    302.78835   -111073.43   -110229.54   -259.13356       274625  0.038816842 
   55200    311.60682   -111107.12   -110238.65   -119.39776       274625  0.038816842 
   55300    292.72674   -111036.57   -110220.72   -142.13486       274625  0.038816842 
   55400    303.94183   -111072.87   -110225.77   -26.854755       274625  0.038816842 
   55500     296.9675   -111058.96    -110231.3    342.36502       274625  0.038816842 
   55600    299.58061    -111076.1   -110241.15   -256.31322       274625  0.038816842 
   55700    304.45304   -111085.99   -110237.46    38.239535       274625  0.038816842 
   55800    298.50183   -111071.23   -110239.28   -128.57853       274625  0.038816842 
   55900     303.4463   -111090.57   -110244.84   -238.43739       274625  0.038816842 
   56000    293.88361   -111040.36   -110221.29   -139.76853       274625  0.038816842 
   56100    299.98148   -111062.69   -110226.63    196.82037       274625  0.038816842 
   56200    300.27663   -111069.63   -110232.74    1.0499334       274625  0.038816842 
   56300    287.54015   -111031.31   -110229.92   -328.79312       274625  0.038816842 
   56400    298.48669   -111048.42   -110216.52    63.932915       274625  0.038816842 
   56500    310.65041   -111083.99   -110218.19   -109.53457       274625  0.038816842 
   56600    305.10899   -111089.25   -110238.89    78.604892       274625  0.038816842 
   56700    304.24971   -111075.09   -110227.13   -190.99892       274625  0.038816842 
   56800    302.51057   -111058.44   -110215.32   -101.77618       274625  0.038816842 
   56900    304.21983    -111062.6   -110214.72    6.3327107       274625  0.038816842 
   57000    291.43142   -111037.63   -110225.39    38.174162       274625  0.038816842 
   57100    305.48423   -111068.46   -110217.06    260.89827       274625  0.038816842 
   57200    290.67975   -111041.46   -110231.32   -328.88503       274625  0.038816842 
   57300    298.33918   -111049.43   -110217.94    92.928571       274625  0.038816842 
   57400    297.98382    -111053.6    -110223.1   -75.702521       274625  0.038816842 
   57500    300.74546   -111063.26   -110225.06   -109.56065       274625  0.038816842 
   57600    307.31506   -111080.61    -110224.1   -48.268618       274625  0.038816842 
   57700    302.24484   -111043.81   -110201.43    197.65321       274625  0.038816842 
   57800    293.82299   -111021.34   -110202.44   -111.82848       274625  0.038816842 
   57900    302.95316   -111053.36   -110209.01   -80.158766       274625  0.038816842 
   58000    297.58801   -111038.43   -110209.04     570.0875       274625  0.038816842 
   58100     298.0995   -111026.54   -110195.72   -182.58806       274625  0.038816842 
   58200    308.54543   -111057.13    -110197.2   -10.249494       274625  0.038816842 
   58300    299.01426   -111025.82   -110192.45    99.519162       274625  0.038816842 
   58400    293.58884   -111010.53   -110192.28   -363.00488       274625  0.038816842 
   58500    295.32718   -111026.39    -110203.3    -126.2006       274625  0.038816842 
   58600    305.25741   -111058.83   -110208.06   -8.9196652       274625  0.038816842 
   58700    292.93422   -111016.62   -110200.19    128.91748       274625  0.038816842 
   58800    303.54222   -111043.15   -110197.16   -58.279081       274625  0.038816842 
   58900    295.72273   -111044.93   -110220.74   -313.32929       274625  0.038816842 
   59000    305.08817   -111060.12   -110209.82   -68.645794       274625  0.038816842 
   59100    302.52719   -111057.85   -110214.69   -158.26099       274625  0.038816842 
   59200    300.91712   -111039.09   -110200.42     392.2016       274625  0.038816842 
   59300    297.13498   -111050.83    -110222.7    30.441408       274625  0.038816842 
   59400     299.6756   -111035.89   -110200.68    91.025937       274625  0.038816842 
   59500     301.1861   -111048.25   -110208.83    354.77926       274625  0.038816842 
   59600    301.81738   -111058.95   -110217.77   -43.390601       274625  0.038816842 
   59700    301.52071   -111064.97   -110224.62    358.64818       274625  0.038816842 
   59800    296.25391   -111060.57   -110234.89    2.4129812       274625  0.038816842 
   59900     306.5327   -111074.74   -110220.42   -131.55768       274625  0.038816842 
   60000    293.95626   -111045.11   -110225.84    78.637433       274625  0.038816842 
   60100    306.08049   -113426.52   -112573.46   -61.923368       274625  0.038816842 
   60200    301.49899   -113431.28   -112590.99    40.019143       274625  0.038816842 
   60300    303.67661   -113437.85   -112591.48    60.405163       274625  0.038816842 
   60400    298.39768   -113425.83   -112594.17    148.13479       274625  0.038816842 
   60500    301.55816   -113438.98   -112598.52    150.67855       274625  0.038816842 
   60600    299.25147   -113448.64   -112614.61   -28.346738       274625  0.038816842 
   60700    301.22017   -113467.25   -112627.73   -293.41837       274625  0.038816842 
   60800    301.36029   -113470.78   -112630.88    113.30494       274625  0.038816842 
   60900    300.82616   -113472.78   -112634.36     91.82589       274625  0.038816842 
   61000    307.66364   -113495.65   -112638.18    -32.40426       274625  0.038816842 
   61100    299.62162   -113493.79   -112658.72    192.39105       274625  0.038816842 
   61200    302.48397   -113509.08   -112666.04   -278.06777       274625  0.038816842 
   61300    299.81698   -113524.88   -112689.28    58.972698       274625  0.038816842 
   61400    304.83103   -113523.26   -112673.68   -471.89601       274625  0.038816842 
   61500    303.78294   -113515.74   -112669.08    29.758672       274625  0.038816842 
   61600    302.30455   -113506.02   -112663.48    -463.6729       274625  0.038816842 
   61700    293.30894   -113481.84   -112664.37    152.32888       274625  0.038816842 
   61800    290.68064   -113472.63   -112662.49    36.748165       274625  0.038816842 
   61900    308.40831   -113533.31   -112673.75   -87.456359       274625  0.038816842 
   62000    297.19667   -113511.93   -112683.63   -331.57582       274625  0.038816842 
   62100    302.00514   -113504.58   -112662.87   -118.78633       274625  0.038816842 
   62200    297.30443   -113503.97   -112675.37   -25.530579       274625  0.038816842 
   62300    305.31943   -113531.07   -112680.13    14.959755       274625  0.038816842 
   62400    303.47782   -113529.03   -112683.22    71.088696       274625  0.038816842 
   62500    303.63359   -113516.88   -112670.64   -141.92506       274625  0.038816842 
   62600    295.71314   -113500.81   -112676.64    289.76547       274625  0.038816842 
   62700    295.53479   -113504.18    -112680.5   -346.24079       274625  0.038816842 
   62800    302.08152   -113507.87   -112665.95   -50.915979       274625  0.038816842 
   62900    298.63843   -113489.33   -112657.01   -32.095223       274625  0.038816842 
   63000    295.85472   -113489.99   -112665.42    16.715404       274625  0.038816842 
   63100    302.21279   -113494.46   -112652.17   -201.27152       274625  0.038816842 
   63200    301.75259   -113505.11   -112664.11   -83.438865       274625  0.038816842 
   63300    302.13593   -113498.23   -112656.16    383.28468       274625  0.038816842 
   63400     305.6378   -113516.03    -112664.2   -166.37965       274625  0.038816842 
   63500    300.94014   -113475.32   -112636.59   -250.84149       274625  0.038816842 
   63600    307.20673   -113518.32   -112662.11    -25.50377       274625  0.038816842 
   63700     300.3047   -113507.67   -112670.71   -351.73405       274625  0.038816842 
   63800    297.21501   -113500.35   -112671.99   -56.796808       274625  0.038816842 
   63900    299.71579   -113504.31   -112668.99    131.06095       274625  0.038816842 
   64000    299.69106   -113495.64   -112660.38     241.9967       274625  0.038816842 
   64100    305.52565   -113521.38   -112669.86   -186.08759       274625  0.038816842 
   64200    301.47244   -113500.91   -112660.69   -167.27016       274625  0.038816842 
   64300     290.7285   -113458.99   -112648.72    74.930696       274625  0.038816842 
   64400    310.95368   -113529.05   -112662.41   -4.7793315       274625  0.038816842 
   64500    299.72395   -113516.26   -112680.91    58.813235       274625  0.038816842 
   64600    302.43553   -113508.61    -112665.7     332.0653       274625  0.038816842 
   64700    305.22371   -113522.86   -112672.19   -71.505535       274625  0.038816842 
   64800    297.02875   -113504.25   -112676.42    -169.4191       274625  0.038816842 
   64900    307.87647   -113533.99   -112675.92   -31.833249       274625  0.038816842 
   65000     303.0057    -113553.7   -112709.21    32.066009       274625  0.038816842 
   65100    295.11338   -113530.49   -112707.99    232.95825       274625  0.038816842 
   65200    298.74872    -113549.1   -112716.47   -165.09348       274625  0.038816842 
   65300    295.16813   -113540.36   -112717.71    68.869678       274625  0.038816842 
   65400    307.12688   -113578.57   -112722.59   -115.46351       274625  0.038816842 
   65500    295.10139   -113546.65   -112724.18    25.735142       274625  0.038816842 
   65600    299.28423   -113570.57   -112736.45     48.87912       274625  0.038816842 
   65700    290.59331   -113547.02   -112737.12   -148.21446       274625  0.038816842 
   65800     307.2242   -113617.64   -112761.39   -34.418884       274625  0.038816842 
   65900    302.89215   -113585.58    -112741.4   -416.12395       274625  0.038816842 
   66000    306.06973   -113613.42   -112760.39    104.36882       274625  0.038816842 
   66100    300.69176   -113623.57   -112785.53   -73.917595       274625  0.038816842 
   66200    309.43413   -113626.21    -112763.8    186.15698       274625  0.038816842 
   66300    296.85482    -113580.8   -112753.45    38.423103       274625  0.038816842 
   66400    307.52056   -113610.95   -112753.88   -72.161522       274625  0.038816842 
   66500    296.72763   -113573.37   -112746.37    19.784123       274625  0.038816842 
   66600     289.3393   -113566.69   -112760.29   -153.15404       274625  0.038816842 
   66700    300.75613   -113591.36   -112753.14    112.30073       274625  0.038816842 
   66800    289.17278   -113556.64   -112750.69    31.237844       274625  0.038816842 
   66900    301.19357   -113584.15   -112744.71    258.63678       274625  0.038816842 
   67000    306.50106   -113599.75   -112745.51   -21.376939       274625  0.038816842 
   67100    302.97955   -113583.15   -112738.73    4.4626948       274625  0.038816842 
   67200     305.0605   -113609.66   -112759.44   -33.898134       274625  0.038816842 
   67300    302.27502   -113607.88   -112765.42      38.6402       274625  0.038816842 
   67400    305.58552   -113616.85   -112765.17   -24.751354       274625  0.038816842 
   67500    303.98962   -113617.87   -112770.63    10.097258       274625  0.038816842 
   67600    294.67746   -113592.49   -112771.21     39.03885       274625  0.038816842 
   67700     305.4929   -113632.13    -112780.7    107.48343       274625  0.038816842 
   67800    304.57835   -113638.07    -112789.2    7.5894046       274625  0.038816842 
   67900     297.5286   -113582.53    -112753.3   -110.87871       274625  0.038816842 
   68000    300.98254   -113603.03   -112764.17   -101.10856       274625  0.038816842 
   68100    298.41008   -113581.42   -112749.74   -121.74308       274625  0.038816842 
   68200    308.16294   -113609.91   -112751.04     241.2141       274625  0.038816842 
   68300    293.06609   -113574.36   -112757.57   -33.523686       274625  0.038816842 
   68400    302.02797   -113588.31   -112746.54   -125.20622       274625  0.038816842 
   68500    301.57505   -113594.54   -112754.03    100.13393       274625  0.038816842 
   68600    290.74192   -113557.01    -112746.7   -315.31847       274625  0.038816842 
   68700    293.04051   -113556.03    -112739.3    330.26947       274625  0.038816842 
   68800     293.8306      -113556   -112737.08    46.176298       274625  0.038816842 
   68900    300.00147   -113570.43   -112734.31    84.504835       274625  0.038816842 
   69000    298.32972   -113576.93   -112745.46    58.189074       274625  0.038816842 
   69100     295.6426   -113582.37    -112758.4    336.33656       274625  0.038816842 
   69200    309.33381   -113632.26   -112770.13    365.75105       274625  0.038816842 
   69300    299.65961   -113600.47    -112765.3     125.6734       274625  0.038816842 
   69400    301.32047   -113597.63   -112757.83    12.149127       274625  0.038816842 
   69500     290.8823   -113566.51    -112755.8     258.0405       274625  0.038816842 
   69600    299.37668   -113597.85   -112763.47    262.36926       274625  0.038816842 
   69700    304.00856   -113622.34   -112775.05    400.41993       274625  0.038816842 
   69800    300.66166    -113608.7   -112770.73   -44.555278       274625  0.038816842 
   69900     302.6689   -113613.34   -112769.78    180.75416       274625  0.038816842 
   70000    300.50872   -113610.48   -112772.95    87.513049       274625  0.038816842 
   70100    302.37604   -111049.83   -110207.09   -60.675137       274625  0.038816842 
   70200    307.05344   -111092.84   -110237.07   -47.670248       274625  0.038816842 
   70300    297.31461   -111085.18   -110256.55    26.576174       274625  0.038816842 
   70400    291.00017   -111043.72   -110232.69     112.6168       274625  0.038816842 
   70500    297.18661   -111049.34   -110221.06    249.95772       274625  0.038816842 
   70600    297.67682   -111051.71   -110222.07   -1.7620136       274625  0.038816842 
   70700    303.49099   -111061.27   -110215.42   -62.252841       274625  0.038816842 
   70800    305.58686   -111082.83   -110231.14   -81.886818       274625  0.038816842 
   70900    309.84851   -111101.55   -110237.98   -15.787388       274625  0.038816842 
   71000    296.27371   -111056.47   -110230.74   -183.68003       274625  0.038816842 
   71100    294.08751    -111064.5   -110244.86    142.26374       274625  0.038816842 
   71200    308.20182   -111104.76   -110245.79   -269.77613       274625  0.038816842 
   71300    301.55528   -111076.84   -110236.39   -3.6497055       274625  0.038816842 
   71400    299.87804   -111079.27   -110243.49    53.683293       274625  0.038816842 
   71500    301.95102   -111083.71   -110242.15    148.07977       274625  0.038816842 
   71600    304.06974   -111109.33   -110261.87   -10.973733       274625  0.038816842 
   71700    301.69421   -111077.91   -110237.07    79.575088       274625  0.038816842 
   71800    293.33829   -111053.06   -110235.51   -44.074448       274625  0.038816842 
   71900    305.37626   -111080.35   -110229.25    148.25075       274625  0.038816842 
   72000    306.40928   -111098.09   -110244.11    120.34063       274625  0.038816842 
   72100    296.65927   -111062.22   -110235.41   -217.59298       274625  0.038816842 
   72200    293.04258   -111043.99   -110227.27   -87.151471       274625  0.038816842 
   72300    293.31094   -111049.96   -110232.48    201.34656       274625  0.038816842 
   72400    302.00407   -111075.63   -110233.92    631.02834       274625  0.038816842 
   72500    298.21034   -111087.59   -110256.46   -115.57999       274625  0.038816842 
   72600    304.58449    -111101.5   -110252.61   -222.41148       274625  0.038816842 
   72700    308.35692    -111118.1   -110258.69    -46.01275       274625  0.038816842 
   72800    296.99967   -111088.78   -110261.03   -307.26181       274625  0.038816842 
   72900    300.58478   -111102.77   -110265.03   -75.454159       274625  0.038816842 
   73000    292.00615    -111049.2   -110235.36    18.515003       274625  0.038816842 
   73100    303.60963    -111075.1   -110228.93   -121.51582       274625  0.038816842 
   73200    296.76863   -111057.16   -110230.05   -124.80709       274625  0.038816842 
   73300    305.08069   -111123.45   -110273.17   -137.12733       274625  0.038816842 
   73400     297.3734   -111092.91   -110264.11   -116.38701       274625  0.038816842 
   73500    306.93487   -111112.35    -110256.9   -4.9978781       274625  0.038816842 
   73600    309.63331   -111128.71   -110265.74    85.189402       274625  0.038816842 
   73700    301.64781   -111099.98   -110259.27     -36.0346       274625  0.038816842 
   73800    299.00775   -111097.66   -110264.31   -168.70166       274625  0.038816842 
   73900    297.00132   -111095.17   -110267.41   -95.033338       274625  0.038816842 
   74000    299.45367    -111085.6      -110251   -188.09162       274625  0.038816842 
   74100    302.46861   -111111.84   -110268.84   -200.30827       274625  0.038816842 
   74200    304.35765   -111135.29   -110287.03    285.56818       274625  0.038816842 
   74300    300.01101   -111107.38   -110271.23   -177.22417       274625  0.038816842 
   74400    293.53778   -111059.19   -110241.08     188.3507       274625  0.038816842 
   74500    297.58229   -111074.87   -110245.49    201.09467       274625  0.038816842 
   74600    298.85851   -111069.57   -110236.63    20.244325       274625  0.038816842 
   74700    301.81321   -111071.67    -110230.5    51.066167       274625  0.038816842 
   74800    301.46407   -111083.49   -110243.29    84.414661       274625  0.038816842 
   74900    297.74738   -111094.38   -110264.54    117.37973       274625  0.038816842 
   75000    301.39621   -111081.28   -110241.27   -219.43499       274625  0.038816842 
   75100     298.4573   -112691.14   -111859.32    101.07101       274625  0.038816842 
   75200    299.12395   -112710.57   -111876.89   -174.12431       274625  0.038816842 
   75300    307.80279   -112766.04   -111908.17   -373.68542       274625  0.038816842 
   75400    308.38513   -112781.52   -111922.04   -37.425945       274625  0.038816842 
   75500     301.8346   -112796.67   -111955.44   -117.59133       274625  0.038816842 
   75600    305.45709   -112795.85   -111944.52    160.94886       274625  0.038816842 
   75700    296.19458   -112790.53   -111965.02   -108.33669       274625  0.038816842 
   75800    299.33896   -112785.83   -111951.55    176.56109       274625  0.038816842 
   75900    292.79366   -112770.01   -111953.98    249.90556       274625  0.038816842 
   76000    299.96357   -112787.36   -111951.34    239.91411       274625  0.038816842 
   76100    293.36999   -112778.19   -111960.55   -212.79965       274625  0.038816842 
   76200    307.65215    -112804.8   -111947.36     -122.966       274625  0.038816842 
   76300    293.77265   -112773.09   -111954.33   -242.74893       274625  0.038816842 
   76400    302.95405   -112822.13   -111977.78   -40.401378       274625  0.038816842 
   76500    306.36428   -112847.55    -111993.7   -150.32335       274625  0.038816842 
   76600    295.85918   -112823.28   -111998.71     -328.076       274625  0.038816842 
   76700    306.40178   -112910.63   -112056.67   -69.384951       274625  0.038816842 
   76800    304.33316   -112955.35   -112107.16    259.15393       274625  0.038816842 
   76900    304.28526   -112979.07   -112131.01   -141.65766       274625  0.038816842 
   77000    296.53663   -112960.64   -112134.17    556.85848       274625  0.038816842 
   77100    297.14085   -112946.75    -112118.6    387.11379       274625  0.038816842 
   77200    305.99583    -112973.8   -112120.97    20.547178       274625  0.038816842 
   77300    294.06524   -112949.32   -112129.74    120.47072       274625  0.038816842 
   77400    302.30316   -112971.32   -112128.78   -272.20837       274625  0.038816842 
   77500    302.77772   -112975.72   -112131.86    -75.11658       274625  0.038816842 
   77600    299.63431    -112973.8    -112138.7   -130.20518       274625  0.038816842 
   77700    302.52913   -112959.18   -112116.01    -30.44883       274625  0.038816842 
   77800    293.02868   -112914.78   -112098.09     17.23052       274625  0.038816842 
   77900    304.00751   -112956.68    -112109.4   -206.04097       274625  0.038816842 
   78000    304.99984   -112979.28   -112129.23   -260.80942       274625  0.038816842 
   78100    294.27958   -112957.13   -112136.96   -329.70768       274625  0.038816842 
   78200     292.5851    -112928.1   -112112.65    139.82359       274625  0.038816842 
   78300    305.93598   -112941.04   -112088.38   -289.37208       274625  0.038816842 
   78400    288.43867   -112906.02   -112102.13   -260.56521       274625  0.038816842 
   78500    293.87166   -112928.26   -112109.23    6.7734372       274625  0.038816842 
   78600    299.46956   -112954.54    -112119.9   -83.832227       274625  0.038816842 
   78700    302.42327   -112973.79   -112130.92   -57.615298       274625  0.038816842 
   78800    292.76239   -112921.71   -112105.77     180.4402       274625  0.038816842 
   78900    305.52808   -112948.55   -112097.02   -363.37602       274625  0.038816842 
   79000    299.58397   -112916.36    -112081.4   -8.5182347       274625  0.038816842 
   79100    303.64333   -112934.51   -112088.24   -72.632272       274625  0.038816842 
   79200    304.90096   -112959.67   -112109.89   -58.373344       274625  0.038816842 
   79300    302.35232   -112943.84   -112101.17   -76.007114       274625  0.038816842 
   79400    295.06935   -112923.75   -112101.38   -283.04354       274625  0.038816842 
   79500    304.83368   -112956.22   -112106.64   -140.24957       274625  0.038816842 
   79600      290.548    -112922.8   -112113.02    95.846654       274625  0.038816842 
   79700    302.12034   -112954.35   -112112.33   -2.4364077       274625  0.038816842 
   79800    295.13501   -112947.17   -112124.62   -105.58948       274625  0.038816842 
   79900    303.71584    -112961.4   -112114.92    355.06846       274625  0.038816842 
   80000    297.91403   -112930.95   -112100.65   -235.31188       274625  0.038816842 
   80100    299.07439   -112917.17   -112083.63    194.36055       274625  0.038816842 
   80200    292.72494   -112910.09   -112094.25   -6.6760435       274625  0.038816842 
   80300    295.10492    -112896.3   -112073.82   -123.24379       274625  0.038816842 
   80400    305.81439   -112948.77   -112096.45   -127.05737       274625  0.038816842 
   80500    298.40556   -112930.16   -112098.48   -49.753132       274625  0.038816842 
   80600    295.80317   -112921.44   -112097.02   -70.443665       274625  0.038816842 
   80700    297.15634   -112927.36   -112099.17   -41.309587       274625  0.038816842 
   80800    305.53563    -112953.2   -112101.65    242.96765       274625  0.038816842 
   80900      293.573   -112896.16   -112077.96    139.29571       274625  0.038816842 
   81000     294.9078   -112896.22   -112074.29    144.61572       274625  0.038816842 
   81100    310.65992   -112974.71   -112108.88    298.71316       274625  0.038816842 
   81200    309.58017   -113005.73   -112142.91   -65.647971       274625  0.038816842 
   81300    304.16698   -112975.66   -112127.93   -154.49818       274625  0.038816842 
   81400    300.31826   -112955.97   -112118.97   -0.1440508       274625  0.038816842 
   81500    298.27771   -112922.65   -112091.33   -160.34332       274625  0.038816842 
   81600    296.77267   -112927.52   -112100.39    369.01735       274625  0.038816842 
   81700    292.56254   -112925.07   -112109.68   -143.60595       274625  0.038816842 
   81800    301.23377   -112927.81   -112088.25   -329.87665       274625  0.038816842 
   81900    301.18058   -112943.33   -112103.92   -105.24156       274625  0.038816842 
   82000    294.52796   -112917.33   -112096.47   -64.796178       274625  0.038816842 
   82100    297.68822   -112958.03   -112128.36   -52.449541       274625  0.038816842 
   82200    301.82462    -112970.9   -112129.69    16.079868       274625  0.038816842 
   82300    302.85478   -112963.86   -112119.78   -149.88879       274625  0.038816842 
   82400    301.57099   -112968.61   -112128.12    52.111943       274625  0.038816842 
   82500     298.3832   -112948.07   -112116.46   -568.44246       274625  0.038816842 
   82600    315.35041   -112961.27   -112082.37    30.791761       274625  0.038816842 
   82700    306.27284   -112952.62   -112099.02   -51.228383       274625  0.038816842 
   82800    299.70332   -112939.65   -112104.36    16.615697       274625  0.038816842 
   82900     300.6793   -112947.57   -112109.56     295.4307       274625  0.038816842 
   83000    294.34247   -112898.51   -112078.16   -125.46894       274625  0.038816842 
   83100    298.95974   -112922.79   -112089.57    670.16068       274625  0.038816842 
   83200     305.5265   -112936.09   -112084.57    497.22856       274625  0.038816842 
   83300    308.78939   -112971.63   -112111.02    22.485091       274625  0.038816842 
   83400     300.5293   -112950.56   -112112.97    77.793883       274625  0.038816842 
   83500    297.02559   -112934.03    -112106.2   -64.609672       274625  0.038816842 
   83600    301.72706   -112963.39   -112122.46    229.95818       274625  0.038816842 
   83700    303.49268   -112976.16    -112130.3      60.8497       274625  0.038816842 
   83800    303.29145    -112980.5   -112135.21   -143.36079       274625  0.038816842 
   83900     298.8221   -112947.64    -112114.8   -99.485951       274625  0.038816842 
   84000     309.2154   -112983.03   -112121.23    138.47294       274625  0.038816842 
   84100    296.22707   -112942.17   -112116.57   -93.535507       274625  0.038816842 
   84200    297.58826   -112956.94   -112127.55   -50.758658       274625  0.038816842 
   84300    302.61672   -112983.79   -112140.38   -73.556739       274625  0.038816842 
   84400    301.67526   -112980.96   -112140.17    -447.3709       274625  0.038816842 
   84500    305.90642   -113025.11   -112172.53   -36.126208       274625  0.038816842 
   84600    300.03561   -112992.26   -112156.04    111.99835       274625  0.038816842 
   84700    304.37074   -113015.88   -112167.58    109.32331       274625  0.038816842 
   84800    296.98173   -112997.45   -112169.75    110.89698       274625  0.038816842 
   84900    299.36068   -112989.28   -112154.95      1.21833       274625  0.038816842 
   85000    295.50935   -112985.78   -112162.18   -182.47342       274625  0.038816842 
   85100    304.68084   -111060.42   -110211.26   -95.247389       274625  0.038816842 
   85200    298.44731   -111112.09    -110280.3    81.571733       274625  0.038816842 
   85300    308.52312    -111131.4   -110271.53   -216.23893       274625  0.038816842 
   85400    302.39053   -111137.79   -110295.01     89.00496       274625  0.038816842 
   85500    291.87935   -111101.86   -110288.37    1.5563901       274625  0.038816842 
   85600    300.01238   -111110.49   -110274.34    217.76024       274625  0.038816842 
   85700    299.40711   -111112.52   -110278.05   -191.98166       274625  0.038816842 
   85800     300.7249   -111108.47   -110270.33   -56.624444       274625  0.038816842 
   85900    294.40157   -111083.22   -110262.71   -28.572771       274625  0.038816842 
   86000    297.88921   -111093.63    -110263.4    48.035432       274625  0.038816842 
   86100    302.21861   -111113.41   -110271.11    32.408839       274625  0.038816842 
   86200    299.96421   -111111.48   -110275.46    1.7866355       274625  0.038816842 
   86300    303.83904   -111088.66   -110241.85    -24.51225       274625  0.038816842 
   86400    299.82556   -111080.89   -110245.26   -23.906277       274625  0.038816842 
   86500    302.28521   -111094.15   -110251.66   -127.76182       274625  0.038816842 
   86600    298.08347   -111074.32   -110243.55    89.189471       274625  0.038816842 
   86700    305.26181   -111097.87   -110247.09   -30.946359       274625  0.038816842 
   86800    300.07645   -111078.23    -110241.9   -8.2735557       274625  0.038816842 
   86900    307.24031   -111107.87   -110251.57   -236.41704       274625  0.038816842 
   87000    300.35539   -111104.96   -110267.85    361.67414       274625  0.038816842 
   87100    296.75571   -111103.86   -110276.79    34.651852       274625  0.038816842 
   87200    299.22931   -111100.11   -110266.14   -85.720744       274625  0.038816842 
   87300    291.79918    -111077.5   -110264.24    256.83926       274625  0.038816842 
   87400    302.74458   -111110.49   -110266.73    180.97526       274625  0.038816842 
   87500    292.82698   -111067.39   -110251.26   -57.553097       274625  0.038816842 
   87600    293.12454   -111069.56   -110252.61   -85.051059       274625  0.038816842 
   87700    299.17569   -111071.89   -110238.07    209.31838       274625  0.038816842 
   87800    301.11837   -111088.99   -110249.76     -58.4946       274625  0.038816842 
   87900    300.03978   -111086.96   -110250.73    120.37254       274625  0.038816842 
   88000    297.00794   -111073.61   -110245.83   -24.951181       274625  0.038816842 
   88100    308.26847    -111103.1   -110243.94    -20.05277       274625  0.038816842 
   88200    294.53076   -111043.89   -110223.02   -145.43117       274625  0.038816842 
   88300    290.15611    -111027.2   -110218.52   -174.62414       274625  0.038816842 
[...]
 4575800    306.25255   -114329.87   -113476.33    36.675467       274625  0.038816842 
 4575900    297.19682   -114308.75   -113480.45   -48.798154       274625  0.038816842 
 4576000    309.59346   -114363.95   -113501.09    423.33955       274625  0.038816842 
 4576100    307.10387   -114351.11   -113495.19    82.408099       274625  0.038816842 
 4576200    300.22219   -114329.16   -113492.42   -201.81219       274625  0.038816842 
 4576300     305.3791   -114315.09   -113463.98   -13.288425       274625  0.038816842 
 4576400    302.79908   -114316.02    -113472.1    50.072587       274625  0.038816842 
 4576500    290.99354   -114277.61   -113466.59    176.05928       274625  0.038816842 
 4576600    301.72563   -114313.11   -113472.18    272.81184       274625  0.038816842 
 4576700    297.27944   -114312.78   -113484.25     247.1271       274625  0.038816842 
 4576800    300.02591   -114311.59    -113475.4   -115.27474       274625  0.038816842 
 4576900    295.54227   -114304.24   -113480.54    45.847555       274625  0.038816842 
 4577000    300.13882   -114296.13   -113459.63    127.44969       274625  0.038816842 
 4577100    303.25313   -114316.49    -113471.3    -45.63597       274625  0.038816842 
 4577200    303.97586   -114326.09   -113478.89   -241.14454       274625  0.038816842 
 4577300    308.43028   -114340.94   -113481.33    282.19573       274625  0.038816842 
 4577400    298.58852   -114315.65   -113483.47    13.583106       274625  0.038816842 
 4577500      295.888   -114302.48   -113477.83    56.320647       274625  0.038816842 
 4577600    307.59622    -114344.2   -113486.91    249.54642       274625  0.038816842 
 4577700    295.19419   -114315.02    -113492.3   -45.318799       274625  0.038816842 
 4577800    299.85097   -114336.91   -113501.21    248.04555       274625  0.038816842 
 4577900    300.74537   -114330.28   -113492.09    326.06453       274625  0.038816842 
 4578000    296.55272   -114328.75   -113502.24   -171.33443       274625  0.038816842 
 4578100    300.56325   -114323.84   -113486.15    99.763586       274625  0.038816842 
 4578200     297.4757   -114318.46   -113489.38   -167.93391       274625  0.038816842 
 4578300     303.0589      -114349   -113504.36    1.8340691       274625  0.038816842 
 4578400    296.61061   -114332.12   -113505.44    115.72154       274625  0.038816842 
 4578500    301.82623   -114350.57   -113509.36   -42.889685       274625  0.038816842 
 4578600    297.32794   -114346.67      -113518    141.15904       274625  0.038816842 
 4578700    294.38771   -114325.19   -113504.71   -130.72247       274625  0.038816842 
 4578800    298.94811   -114316.89   -113483.71    44.338146       274625  0.038816842 
 4578900    292.98875   -114309.48    -113492.9    161.88614       274625  0.038816842 
 4579000    303.98173   -114348.23   -113501.02    200.10773       274625  0.038816842 
 4579100    298.41091   -114329.51   -113497.82    215.95388       274625  0.038816842 
 4579200    302.65075   -114336.66   -113493.15    108.03104       274625  0.038816842 
 4579300    305.14697   -114348.26    -113497.8    -229.0136       274625  0.038816842 
 4579400    303.00231   -114328.95   -113484.46   -160.92752       274625  0.038816842 
 4579500     298.1135   -114329.64   -113498.78   -15.595208       274625  0.038816842 
 4579600    299.67658   -114317.61    -113482.4    11.549743       274625  0.038816842 
 4579700    303.21252   -114337.34   -113492.27   -375.18586       274625  0.038816842 
 4579800     296.3095   -111823.54   -110997.71   -67.984266       274625  0.038816842 
 4579900    295.70324   -111804.81   -110980.67    126.59996       274625  0.038816842 
 4580000    301.30099   -111829.65   -110989.91    9.8294692       274625  0.038816842 
 4580100     299.4122   -111828.45   -110993.97     -194.598       274625  0.038816842 
 4580200    299.96241   -111823.48   -110987.47    237.76405       274625  0.038816842 
 4580300    299.23635    -111833.2   -110999.21   -162.33946       274625  0.038816842 
 4580400    300.97248   -111827.85   -110989.02   -103.55784       274625  0.038816842 
 4580500    297.21559   -111824.31   -110995.95   -63.735082       274625  0.038816842 
 4580600    294.30123   -111798.81   -110978.58    15.385069       274625  0.038816842 
 4580700    302.28877   -111818.88   -110976.39    398.33146       274625  0.038816842 
 4580800    307.88692   -111829.04   -110970.94    97.467214       274625  0.038816842 
 4580900    300.90091   -111824.26   -110985.63    51.321751       274625  0.038816842 
 4581000    305.51989    -111844.3    -110992.8   -119.03034       274625  0.038816842 
 4581100    291.42892   -111792.92   -110980.69    32.191213       274625  0.038816842 
 4581200     301.5131   -111816.56   -110976.23   -172.19917       274625  0.038816842 
 4581300    304.71898   -111821.96   -110972.69    56.537176       274625  0.038816842 
 4581400    307.61371   -111824.96   -110967.62    -316.5653       274625  0.038816842 
 4581500    295.43807   -111788.21   -110964.81    283.13723       274625  0.038816842 
 4581600     300.1196   -111812.42   -110975.97   -31.962671       274625  0.038816842 
 4581700    302.20448   -111820.19   -110977.92   -181.95272       274625  0.038816842 
 4581800    298.98386   -111827.35   -110994.07    33.168304       274625  0.038816842 
 4581900    289.52405   -111787.47   -110980.55   -306.25815       274625  0.038816842 
 4582000    292.04536   -111807.12   -110993.17    282.09646       274625  0.038816842 
 4582100    309.95044   -111860.98   -110997.13    163.85189       274625  0.038816842 
 4582200    291.55379   -111789.25   -110976.67    73.261598       274625  0.038816842 
 4582300    295.85427   -111814.39   -110989.83    192.69732       274625  0.038816842 
 4582400    300.97025   -111813.66   -110974.84   -23.293887       274625  0.038816842 
 4582500    300.18228   -111817.88   -110981.26    37.289229       274625  0.038816842 
 4582600     300.2432   -111816.36   -110979.57   -181.15764       274625  0.038816842 
 4582700    298.27463   -111825.55   -110994.24    81.626019       274625  0.038816842 
 4582800    299.54224    -111840.7   -111005.85    330.11667       274625  0.038816842 
 4582900    309.08262   -111858.53    -110997.1    83.789012       274625  0.038816842 
 4583000    290.14993      -111791   -110982.34   -20.536181       274625  0.038816842 
 4583100    301.61584   -111827.43   -110986.81    200.99529       274625  0.038816842 
 4583200    300.70001   -111826.03   -110987.96    268.24482       274625  0.038816842 
 4583300    299.74412   -111798.71   -110963.31   -272.94813       274625  0.038816842 
 4583400    302.44323   -111821.38   -110978.46    178.98496       274625  0.038816842 
 4583500    306.47091   -111836.51   -110982.36   -179.99983       274625  0.038816842 
 4583600    307.16032   -111836.57   -110980.49   -32.766268       274625  0.038816842 
 4583700    295.15866   -111809.22   -110986.59   -23.538259       274625  0.038816842 
 4583800    298.75498   -111820.43   -110987.78   -325.75142       274625  0.038816842 
 4583900    307.01467   -111828.72   -110973.05   -92.422221       274625  0.038816842 
 4584000    291.30094   -111773.55   -110961.68   -43.177435       274625  0.038816842 
 4584100    297.48035   -111788.94   -110959.85   -125.06829       274625  0.038816842 
 4584200     302.5624   -111803.65   -110960.39    410.15422       274625  0.038816842 
 4584300     300.9338   -111796.81   -110958.09   -354.26924       274625  0.038816842 
 4584400    290.18839   -111775.16   -110966.39    48.029526       274625  0.038816842 
 4584500    293.88165   -111789.07   -110970.01    3.2762901       274625  0.038816842 
 4584600    300.55715   -111820.67      -110983    46.826182       274625  0.038816842 
 4584700    289.68442   -111773.68   -110966.32   -115.54644       274625  0.038816842 
 4584800    304.11148   -111816.24   -110968.66    216.26124       274625  0.038816842 
 4584900    299.88381   -114032.03   -113196.24   -368.57869       274625  0.038816842 
 4585000    299.05015   -114050.24   -113216.77    212.02879       274625  0.038816842 
 4585100    293.47898    -114053.2   -113235.25    101.96347       274625  0.038816842 
 4585200    308.48433   -114100.75   -113240.99   -49.742795       274625  0.038816842 
 4585300    299.43922   -114077.18   -113242.62   -46.972312       274625  0.038816842 
 4585400    298.90011   -114075.81   -113242.76    170.99042       274625  0.038816842 
 4585500    301.59312   -114067.86   -113227.31    218.84593       274625  0.038816842 
 4585600    306.15336   -114093.78   -113240.51   -92.714727       274625  0.038816842 
 4585700    302.69428   -114095.89   -113252.26    43.540251       274625  0.038816842 
 4585800    298.56647   -114072.69   -113240.57   -267.20124       274625  0.038816842 
 4585900    303.36457    -114095.6   -113250.11    434.94401       274625  0.038816842 
 4586000    301.72117   -114106.24   -113265.33    79.773212       274625  0.038816842 
 4586100    299.67698   -114137.64   -113302.42   -105.42001       274625  0.038816842 
 4586200    298.99157   -114132.21    -113298.9   -193.42687       274625  0.038816842 
 4586300    295.54885   -114089.57   -113265.86    264.77885       274625  0.038816842 
 4586400     301.2774   -114095.41   -113255.73    116.59847       274625  0.038816842 
 4586500    289.89287   -114071.08   -113263.13   -161.03204       274625  0.038816842 
 4586600    302.39975   -114100.17   -113257.37     445.1434       274625  0.038816842 
 4586700    297.65321   -114098.13   -113268.55   -200.65483       274625  0.038816842 
 4586800    295.74605   -114092.75   -113268.49   -30.665359       274625  0.038816842 
 4586900    306.84846   -114130.43   -113275.22    53.892542       274625  0.038816842 
 4587000     303.1017   -114118.26    -113273.5   -176.38765       274625  0.038816842 
 4587100    285.07751   -114060.08   -113265.55   -221.60717       274625  0.038816842 
 4587200    292.17749   -114074.59   -113260.28    131.64875       274625  0.038816842 
 4587300    289.78315   -114055.46   -113247.82   -25.784635       274625  0.038816842 
 4587400    300.79841   -114102.28   -113263.94    216.43509       274625  0.038816842 
 4587500    306.49161   -114120.54   -113266.33    67.439297       274625  0.038816842 
 4587600    307.87942   -114132.18    -113274.1    133.03259       274625  0.038816842 
 4587700    299.02439   -114110.65   -113277.25   -107.84551       274625  0.038816842 
 4587800     301.9121   -114121.22   -113279.77   -284.28595       274625  0.038816842 
 4587900     305.5325   -114108.43    -113256.9    178.02473       274625  0.038816842 
 4588000    295.06778   -114084.53   -113262.16    84.234037       274625  0.038816842 
 4588100    302.75242   -114125.07   -113281.28    97.057708       274625  0.038816842 
 4588200     298.1308   -114133.97   -113303.06   -385.31748       274625  0.038816842 
 4588300    299.48555   -114118.28    -113283.6   -239.17187       274625  0.038816842 
 4588400    301.33551   -114108.74    -113268.9    -70.37677       274625  0.038816842 
 4588500    297.93375   -114121.01   -113290.65    196.98853       274625  0.038816842 
 4588600    302.50731    -114096.4   -113253.29    162.96815       274625  0.038816842 
 4588700    302.82951   -114096.28   -113252.28   -194.20672       274625  0.038816842 
 4588800    304.35141   -114105.46   -113257.21    23.026634       274625  0.038816842 
 4588900     296.0886   -114089.02   -113263.81   -130.97017       274625  0.038816842 
 4589000    294.59054   -114078.08   -113257.04    426.55207       274625  0.038816842 
 4589100    301.41246   -114112.55    -113272.5    109.54345       274625  0.038816842 
 4589200    307.09488   -114121.19    -113265.3    22.355666       274625  0.038816842 
 4589300     300.8516   -114094.42   -113255.93    34.617033       274625  0.038816842 
 4589400    292.39247   -114055.73   -113240.81   -3.5176724       274625  0.038816842 
 4589500     297.7801   -114064.86   -113234.93    1.4928626       274625  0.038816842 
 4589600    308.37728   -114111.29   -113251.83   -147.01611       274625  0.038816842 
 4589700    308.75685    -114123.9   -113263.38    97.999884       274625  0.038816842 
 4589800    297.66663   -114090.51    -113260.9    205.81284       274625  0.038816842 
 4589900    307.79856   -114126.13   -113268.27    126.05848       274625  0.038816842 
 4590000    297.94532   -114079.33   -113248.94    15.517277       274625  0.038816842 
 4590100    296.17692   -114079.58   -113254.11    197.21043       274625  0.038816842 
 4590200    302.26455    -114084.7   -113242.27   -70.709917       274625  0.038816842 
 4590300    304.44542   -114105.32   -113256.81   -8.7397496       274625  0.038816842 
 4590400    310.02768   -114135.22   -113271.16    204.51019       274625  0.038816842 
 4590500    294.83482   -114097.95   -113276.23    31.723875       274625  0.038816842 
 4590600    299.26768   -114093.24   -113259.17   -455.21072       274625  0.038816842 
 4590700    314.16003   -114133.87   -113258.28    269.25096       274625  0.038816842 
 4590800    295.97095   -114078.43   -113253.54   -36.031468       274625  0.038816842 
 4590900    299.35146   -114090.53   -113256.22    390.60342       274625  0.038816842 
 4591000    298.36037   -114094.37   -113262.83   -248.41952       274625  0.038816842 
 4591100    293.18079   -114077.03   -113259.92    207.79783       274625  0.038816842 
 4591200    294.26313   -114083.42    -113263.3   -93.504012       274625  0.038816842 
 4591300    292.07935   -114066.48   -113252.44    38.130104       274625  0.038816842 
 4591400     302.3805   -114105.06    -113262.3    33.221908       274625  0.038816842 
 4591500     300.0996   -114090.09   -113253.69   -138.23802       274625  0.038816842 
 4591600    305.52675   -114124.42    -113272.9    470.08573       274625  0.038816842 
 4591700    300.57867   -114115.01   -113277.28   -63.895225       274625  0.038816842 
 4591800    298.97332   -114111.62   -113278.37   -18.039114       274625  0.038816842 
 4591900    296.07448   -114094.19   -113269.02    -227.6067       274625  0.038816842 
 4592000    302.63948   -114101.63   -113258.16    -235.7733       274625  0.038816842 
 4592100     303.1963   -114112.55   -113267.52     -187.051       274625  0.038816842 
 4592200    303.34031   -114108.28   -113262.86    221.49398       274625  0.038816842 
 4592300    296.88163   -114084.78   -113257.35   -361.88949       274625  0.038816842 
 4592400    304.09087   -114101.81   -113254.29    128.78757       274625  0.038816842 
 4592500    303.61003   -114082.49   -113236.31   -186.47937       274625  0.038816842 
 4592600    314.48243   -114131.28    -113254.8    14.361692       274625  0.038816842 
 4592700    301.13018   -114094.87   -113255.61   -194.58112       274625  0.038816842 
 4592800     300.1768   -114101.42   -113264.81   -53.550206       274625  0.038816842 
 4592900    298.71648   -114083.15   -113250.61   -69.248552       274625  0.038816842 
 4593000    302.07307   -114100.61   -113258.71    90.916112       274625  0.038816842 
 4593100    299.94015    -114077.3   -113241.35   -123.65247       274625  0.038816842 
 4593200    304.74588   -114115.93   -113266.58   -217.58311       274625  0.038816842 
 4593300    298.63416   -114098.74   -113266.43      79.6794       274625  0.038816842 
 4593400    300.09158   -114101.07   -113264.69    107.12224       274625  0.038816842 
 4593500    296.68617   -114082.92   -113256.04    318.28546       274625  0.038816842 
 4593600    303.72174   -114110.11   -113263.62   -157.33967       274625  0.038816842 
 4593700    298.00616   -114083.63   -113253.07   -134.62108       274625  0.038816842 
 4593800    308.31856   -114114.28   -113254.97    225.34188       274625  0.038816842 
 4593900     295.9712   -114092.96   -113268.07    -217.6578       274625  0.038816842 
 4594000    298.79638   -114086.55   -113253.79     -65.7234       274625  0.038816842 
 4594100    302.47263   -114105.62   -113262.61   -108.47344       274625  0.038816842 
 4594200    300.63938   -114080.76   -113242.86   -38.808574       274625  0.038816842 
 4594300    296.45464   -114082.56   -113256.33    148.27001       274625  0.038816842 
 4594400    300.48418   -114080.71   -113243.24   -155.52992       274625  0.038816842 
 4594500    290.06022   -114039.66   -113231.24     -175.679       274625  0.038816842 
 4594600    305.08465   -114084.43   -113234.14    283.91314       274625  0.038816842 
 4594700    304.68057   -114092.37   -113243.21   -334.39581       274625  0.038816842 
 4594800    297.48132   -114077.43   -113248.33   -324.71544       274625  0.038816842 
 4594900    301.77978   -111781.24   -110940.17    -246.5492       274625  0.038816842 
 4595000     302.4205   -111785.94   -110943.07    6.1237218       274625  0.038816842 
 4595100     292.4471   -111777.76   -110962.69    31.216442       274625  0.038816842 
 4595200    300.47555   -111818.49   -110981.05     508.3432       274625  0.038816842 
 4595300    294.77277    -111776.7   -110955.16    21.557372       274625  0.038816842 
 4595400    296.71519    -111795.4   -110968.44    143.92797       274625  0.038816842 
 4595500    310.34214   -111830.76   -110965.82    19.383325       274625  0.038816842 
 4595600    292.04879   -111770.99   -110957.03    91.081932       274625  0.038816842 
 4595700    299.39927   -111804.43   -110969.98    45.017962       274625  0.038816842 
 4595800     306.3564   -111830.26   -110976.42    24.134274       274625  0.038816842 
 4595900    299.16998   -111819.74   -110985.93    252.15539       274625  0.038816842 
 4596000    304.36024   -111840.42   -110992.15   -44.860325       274625  0.038816842 
 4596100    300.51142    -111828.1   -110990.56    55.121077       274625  0.038816842 
 4596200    299.86889   -111833.07   -110997.31    111.91051       274625  0.038816842 
 4596300    295.63222   -111819.51   -110995.57   -232.73224       274625  0.038816842 
 4596400    303.09282      -111853   -111008.27   -178.32896       274625  0.038816842 
 4596500    305.76004    -111847.5   -110995.33    86.765668       274625  0.038816842 
 4596600    297.68553   -111820.01   -110990.34    104.96459       274625  0.038816842 
 4596700     293.4677   -111793.45   -110975.54   -106.35894       274625  0.038816842 
 4596800    292.81249   -111779.79   -110963.71    93.644542       274625  0.038816842 
 4596900    299.68959    -111791.5   -110956.25    227.00158       274625  0.038816842 
 4597000    303.57804   -111816.49    -110970.4    -191.2209       274625  0.038816842 
 4597100    300.52671   -111810.87   -110973.29    12.637774       274625  0.038816842 
 4597200    299.58059   -111800.96   -110966.01   -87.868032       274625  0.038816842 
 4597300    304.06942   -111827.63   -110980.17    184.62425       274625  0.038816842 
 4597400    295.30235   -111804.38   -110981.36    134.45225       274625  0.038816842 
 4597500    303.93756   -111829.11   -110982.02    2.0240071       274625  0.038816842 
 4597600    298.75889   -111838.01   -111005.35    100.45409       274625  0.038816842 
 4597700    299.14436   -111812.04   -110978.31    41.266678       274625  0.038816842 
 4597800    295.92777   -111804.37   -110979.61   -247.83743       274625  0.038816842 
 4597900    298.72455   -111804.37   -110971.81   -64.495212       274625  0.038816842 
 4598000    296.61502   -111796.55   -110969.87   -51.653408       274625  0.038816842 
 4598100    295.39435   -111784.66   -110961.37   -155.29949       274625  0.038816842 
 4598200    305.14782   -111824.52   -110974.06    131.67072       274625  0.038816842 
 4598300    303.00913   -111808.01    -110963.5     -325.103       274625  0.038816842 
 4598400     299.1697   -111805.25   -110971.45   -25.394464       274625  0.038816842 
