#epon2 and detda molecules
936 atoms
4 atom types

-50.0 50.0 xlo xhi
-50.0 50.0 ylo yhi
-50.0 50.0 zlo zhi

Masses

1 12.0
2 1.008
3 15.999
4 14.0

Atoms

1 1 0 30.27558 2.41492 27.07751
2 1 0 31.04107 3.32807 28.05334
3 1 0 30.31817 3.91944 29.27869
4 1 0 28.82966 3.60092 29.51754
5 1 0 28.08907 2.62749 28.5832
6 1 0 28.81076 2.03771 27.36017
7 1 0 28.04592 4.32864 30.62445
8 3 0 30.93836 1.92767 25.81394
9 1 0 28.54848 4.06218 32.05722
10 1 0 30.03225 4.27216 32.41187
11 1 0 30.4951 4.16575 33.87943
12 1 0 29.47564 3.83358 34.98783
13 1 0 28.01244 3.53445 34.61809
14 1 0 27.55134 3.63702 33.15228
15 3 0 29.88261 3.8823 36.44198
16 1 0 29.83047 1.53258 24.86497
17 1 0 30.39158 1.02836 23.52099
18 1 0 30.29954 1.92964 22.27665
19 1 0 28.70203 4.40704 37.22729
20 1 0 29.10507 4.66208 38.69099
21 1 0 27.94597 4.65922 39.70192
22 3 0 29.27919 0.83679 22.52161
23 3 0 28.96261 3.5298 39.66632
24 2 0 26.95155 4.01866 30.55362
25 2 0 29.15846 2.43347 24.6749
26 2 0 30.87354 1.65708 21.33021
27 2 0 27.84932 3.65136 37.18415
28 2 0 32.13567 3.58042 27.859
29 2 0 30.87639 4.61043 29.9936
30 2 0 26.99661 2.36826 28.78061
31 2 0 28.25481 1.33839 26.65145
32 2 0 28.11811 5.44864 30.42571
33 2 0 30.78191 4.53404 31.59357
34 2 0 31.58659 4.35726 34.14762
35 2 0 27.26383 3.26109 35.43365
36 2 0 26.46357 3.42817 32.88226
37 2 0 29.21622 0.70299 25.34952
38 2 0 31.0967 0.13292 23.49637
39 2 0 29.75407 2.929 22.33429
40 2 0 28.35537 5.38993 36.76526
41 2 0 29.92508 5.41594 38.93254
42 2 0 26.95378 4.15427 39.45699
43 2 0 28.069 5.12183 40.73616
44 1 0 37.70304 26.96234 35.09493
45 1 0 38.00297 28.36723 34.53961
46 1 0 36.8619 29.3906 34.38318
47 1 0 35.42383 29.00053 34.77555
48 1 0 35.1412 27.62291 35.40111
49 1 0 36.2802 26.60167 35.55679
50 1 0 34.24726 29.93876 34.45236
51 3 0 38.78746 25.91581 35.14104
52 1 0 34.29367 31.30576 35.1634
53 1 0 35.55056 32.19013 35.06578
54 1 0 35.52958 33.62281 35.63702
55 1 0 34.25638 34.16282 36.31931
56 1 0 33.03419 33.24515 36.49619
57 1 0 33.05672 31.81348 35.92915
58 3 0 34.16877 35.61126 36.73993
59 1 0 38.09571 24.57432 35.21804
60 1 0 39.11223 23.41644 35.25512
61 1 0 39.31646 22.54831 34.00061
62 1 0 32.74584 36.06678 36.5084
63 1 0 32.62706 37.58453 36.73694
64 1 0 31.21472 38.08939 37.0774
65 3 0 38.40826 22.08982 35.12328
66 3 0 32.31563 38.06363 38.12514
67 2 0 33.27766 29.40965 34.73282
68 2 0 37.41795 24.44759 34.31034
69 2 0 40.1907 21.81868 33.947
70 2 0 32.04736 35.51035 37.21731
71 2 0 39.0643 28.64288 34.22787
72 2 0 37.07659 30.4256 33.95554
73 2 0 34.08171 27.34864 35.72032
74 2 0 36.06665 25.57045 35.9943
75 2 0 34.24603 30.12373 33.32767
76 2 0 36.48576 31.79546 34.54634
77 2 0 36.44745 34.29104 35.53253
78 2 0 32.10221 33.63429 37.02561
79 2 0 32.14498 31.13966 36.04942
80 2 0 37.46163 24.54682 36.1654
81 2 0 39.88904 23.36487 36.0879
82 2 0 38.6669 22.71495 33.07872
83 2 0 32.45113 35.83331 35.43213
84 2 0 33.23164 38.306 36.09425
85 2 0 30.41988 37.38127 37.48507
86 2 0 30.94529 39.19181 36.97317
87 1 0 36.94242 6.61723 -0.81155
88 1 0 36.93531 8.15692 -0.77494
89 1 0 35.60044 8.92085 -0.86634
90 1 0 34.27886 8.14041 -1.0024
91 1 0 34.28341 6.60178 -0.96175
92 1 0 35.61585 5.83968 -0.87083
93 1 0 32.96092 8.88445 -1.28259
94 3 0 38.248 5.86371 -0.84241
95 1 0 32.51576 9.85587 -0.17147
96 1 0 33.4825 10.93491 0.35054
97 1 0 32.97851 12.0062 1.33931
98 1 0 31.51227 11.98671 1.81671
99 1 0 30.57447 10.85393 1.36449
100 1 0 31.07897 9.78224 0.38026
101 3 0 30.96556 13.11705 2.65695
102 1 0 37.94495 4.48881 -1.39183
103 1 0 39.21798 3.62504 -1.48496
104 1 0 39.85416 3.36083 -2.86141
105 1 0 29.53049 13.34235 2.23784
106 1 0 28.96692 14.60286 2.91857
107 1 0 27.43448 14.65567 3.03843
108 3 0 38.9336 2.34121 -2.22237
109 3 0 28.31312 14.44374 4.26053
110 2 0 32.13974 8.11177 -1.44804
111 2 0 37.48603 4.5911 -2.43022
112 2 0 40.89055 2.89117 -2.93101
113 2 0 28.90341 12.43326 2.52131
114 2 0 37.91763 8.73035 -0.69873
115 2 0 35.5923 10.06104 -0.8578
116 2 0 33.30122 6.02711 -1.03025
117 2 0 35.62243 4.69934 -0.86887
118 2 0 33.09413 9.4821 -2.24394
119 2 0 34.56196 10.95802 -0.01609
120 2 0 33.68386 12.82715 1.69776
121 2 0 29.49794 10.82263 1.73916
122 2 0 30.37836 8.95139 0.03585
123 2 0 37.19568 3.9786 -0.70003
124 2 0 39.83169 3.40953 -0.54873
125 2 0 39.34439 3.73901 -3.80835
126 2 0 29.49149 13.48679 1.10765
127 2 0 29.44914 15.61753 2.72627
128 2 0 26.80685 13.70633 2.97345
129 2 0 26.89587 15.63937 3.24096
130 1 0 25.46666 20.7312 17.31836
131 1 0 24.97653 20.67861 18.77749
132 1 0 24.40826 21.94685 19.44264
133 1 0 24.34072 23.26461 18.64695
134 1 0 24.76013 23.29456 17.16633
135 1 0 25.32753 22.02871 16.50289
136 1 0 23.95377 24.57863 19.34885
137 3 0 26.13267 19.52994 16.69651
138 1 0 22.5242 24.60959 19.92487
139 1 0 22.04291 23.49308 20.86996
140 1 0 20.67533 23.61622 21.57272
141 1 0 19.78434 24.84854 21.31641
142 1 0 20.22785 25.91672 20.30179
143 1 0 21.59163 25.79164 19.59738
144 3 0 18.5195 25.05837 22.1156
145 1 0 26.93731 20.03689 15.52195
146 1 0 27.68162 18.88999 14.81063
147 1 0 29.20205 18.7426 14.99961
148 1 0 18.37365 26.54415 22.35439
149 1 0 17.20867 26.81761 23.32286
150 1 0 16.59731 28.22614 23.23447
151 3 0 28.63463 19.4374 13.77865
152 3 0 15.83877 27.00589 22.73843
153 2 0 24.0697 25.43253 18.60309
154 2 0 27.69636 20.80414 15.8887
155 2 0 29.7334 17.79967 14.6417
156 2 0 18.1873 27.07326 21.36174
157 2 0 25.05114 19.7074 19.36975
158 2 0 24.06111 21.91664 20.52835
159 2 0 24.67897 24.26318 16.57065
160 2 0 25.66476 22.05701 15.4139
161 2 0 24.68556 24.74576 20.20657
162 2 0 22.70994 22.59049 21.07141
163 2 0 20.33443 22.80784 22.3009
164 2 0 19.55693 26.81419 20.09039
165 2 0 21.92432 26.5913 18.856
166 2 0 26.22639 20.53694 14.7838
167 2 0 27.09731 18.01298 14.37582
168 2 0 29.78102 19.51978 15.59989
169 2 0 19.33662 26.94278 22.81648
170 2 0 17.23561 26.39268 24.3801
171 2 0 16.73654 28.86991 22.30411
172 2 0 15.9528 28.63947 24.0786
173 1 0 25.7528 17.49694 6.82089
174 1 0 26.18855 17.36768 8.29244
175 1 0 26.23228 15.98031 8.96111
176 1 0 25.83161 14.72898 8.15626
177 1 0 25.4705 14.85323 6.66522
178 1 0 25.42664 16.23805 5.99827
179 1 0 25.68899 13.36583 8.85665
180 3 0 25.59241 18.85806 6.19245
181 1 0 26.99088 12.81183 9.46867
182 1 0 27.82363 13.6743 10.43517
183 1 0 29.0306 13.05759 11.17152
184 1 0 29.41225 11.58348 10.92759
185 1 0 28.63426 10.75194 9.89297
186 1 0 27.43159 11.36905 9.15508
187 3 0 30.48924 10.92412 11.75699
188 1 0 24.68953 18.68101 4.99349
189 1 0 24.43876 20.02026 4.27315
190 1 0 23.07471 20.71712 4.42451
191 1 0 30.07176 9.48929 11.98682
192 1 0 31.02798 8.80777 12.98235
193 1 0 31.08039 7.27298 12.89766
194 3 0 23.37926 19.86042 3.21259
195 3 0 32.24768 8.12769 12.43149
196 2 0 25.2871 12.61339 8.10096
197 2 0 23.69189 18.2475 5.33424
198 2 0 22.93736 21.78887 4.06117
199 2 0 30.07695 8.92724 10.99481
200 2 0 26.46061 18.29908 8.89082
201 2 0 26.53693 15.8823 10.05553
202 2 0 25.20556 13.92182 6.06362
203 2 0 25.13202 16.33419 4.90083
204 2 0 24.9243 13.48103 9.69397
205 2 0 27.53031 14.75933 10.62717
206 2 0 29.62533 13.6849 11.91498
207 2 0 28.93335 9.67023 9.69117
208 2 0 26.84806 10.74682 8.39871
209 2 0 25.18615 17.95333 4.26951
210 2 0 25.31619 20.62004 3.86084
211 2 0 22.23452 20.20844 5.00323
212 2 0 29.01764 9.47371 12.4208
213 2 0 31.13089 9.21439 14.04213
214 2 0 30.7391 6.72421 11.95863
215 2 0 31.50471 6.65274 13.75443
216 1 0 30.44694 34.11112 28.9844
217 1 0 30.12763 33.31161 27.70735
218 1 0 28.7422 32.65964 27.53608
219 1 0 27.68497 32.80375 28.64768
220 1 0 27.98106 33.66677 29.88726
221 1 0 29.36397 34.31705 30.05803
222 1 0 26.36973 32.00722 28.57885
223 3 0 31.83527 34.65196 29.21532
224 1 0 25.46254 32.35546 27.38213
225 1 0 26.02339 32.32856 25.94819
226 1 0 25.07365 32.51379 24.74694
227 1 0 23.56678 32.74167 24.9827
228 1 0 23.02523 32.85924 26.41798
229 1 0 23.97431 32.67807 27.61722
230 3 0 22.60471 32.76603 23.81806
231 1 0 31.96615 34.89707 30.70087
232 1 0 33.36205 35.44136 31.06225
233 1 0 34.38107 34.51462 31.7492
234 1 0 21.318 32.11862 24.27748
235 1 0 20.3569 31.93784 23.08856
236 1 0 18.86863 31.82059 23.45845
237 3 0 33.54273 35.48302 32.55841
238 3 0 19.41371 33.06163 22.77059
239 2 0 25.79096 32.18427 29.54447
240 2 0 31.78971 33.91989 31.26063
241 2 0 35.46989 34.83716 31.84905
242 2 0 20.82958 32.76724 25.07797
243 2 0 30.92141 33.18731 26.89862
244 2 0 28.50798 32.05175 26.60024
245 2 0 27.18559 33.79819 30.69324
246 2 0 29.59395 34.93359 30.98938
247 2 0 26.63404 30.90042 28.51342
248 2 0 27.13507 32.14344 25.77479
249 2 0 25.4822 32.45736 23.68399
250 2 0 21.91577 33.05584 26.59331
251 2 0 23.56844 32.75213 28.68002
252 2 0 31.17518 35.65621 31.0145
253 2 0 33.73403 36.41341 30.5971
254 2 0 34.07801 33.45885 32.0543
255 2 0 21.55395 31.09394 24.71803
256 2 0 20.66358 31.29052 22.20201
257 2 0 18.48047 32.20037 24.46069
258 2 0 18.11297 31.39335 22.72006
259 1 0 8.33016 6.76624 34.30935
260 1 0 7.17276 5.77586 34.53658
261 1 0 6.60309 4.97544 33.34972
262 1 0 7.18891 5.17596 31.93877
263 1 0 8.39499 6.10896 31.72925
264 1 0 8.96309 6.90788 32.91392
265 1 0 6.51291 4.52965 30.71633
266 3 0 8.81536 7.64017 35.43811
267 1 0 6.50263 2.98813 30.72049
268 1 0 5.95425 2.218 31.93606
269 1 0 5.79247 0.68556 31.86695
270 1 0 6.19463 -0.07582 30.58761
271 1 0 6.82721 0.68577 29.4099
272 1 0 6.99217 2.21532 29.48061
273 3 0 5.89503 -1.55003 30.44789
274 1 0 9.53602 8.80858 34.80604
275 1 0 10.06782 9.78699 35.87152
276 1 0 9.35531 11.13467 36.08422
277 1 0 5.53478 -1.80584 29.00199
278 1 0 5.03434 -3.25074 28.82386
279 1 0 5.15627 -3.81761 27.39933
280 3 0 10.59744 11.04013 35.2219
281 3 0 6.05056 -4.31413 28.52367
282 2 0 7.04595 4.8926 29.77671
283 2 0 8.81971 9.36297 34.11401
284 2 0 9.61308 11.78081 36.98732
285 2 0 6.44846 -1.62623 28.344
286 2 0 6.72652 5.64903 35.57791
287 2 0 5.7343 4.25464 33.51045
288 2 0 8.84711 6.23102 30.68986
289 2 0 9.8388 7.62071 32.7544
290 2 0 5.43264 4.89154 30.68188
291 2 0 5.64176 2.78405 32.87527
292 2 0 5.35221 0.11888 32.75295
293 2 0 7.15096 0.11986 28.47437
294 2 0 7.44873 2.7794 28.60133
295 2 0 10.41147 8.4076 34.19522
296 2 0 10.79704 9.42249 36.6684
297 2 0 8.48864 11.43563 35.40755
298 2 0 4.70395 -1.08878 28.69332
299 2 0 4.10603 -3.60458 29.38252
300 2 0 5.8782 -3.36062 26.64476
301 2 0 4.56121 -4.73592 27.08091
302 1 0 34.59488 19.88406 -0.93163
303 1 0 34.59475 21.0257 0.10215
304 1 0 33.813 20.8676 1.42036
305 1 0 33.02777 19.57054 1.69457
306 1 0 33.09268 18.40282 0.69394
307 1 0 33.87272 18.56105 -0.62172
308 1 0 32.09354 19.46927 2.91359
309 3 0 35.25665 20.07346 -2.27308
310 1 0 32.79708 19.57985 4.28078
311 1 0 33.72396 20.77177 4.58356
312 1 0 34.29058 20.96409 6.00527
313 1 0 33.94197 19.95474 7.11786
314 1 0 33.09077 18.71599 6.78904
315 1 0 32.5283 18.52217 5.36855
316 3 0 34.35833 20.21592 8.54649
317 1 0 34.65458 19.04726 -3.205
318 1 0 35.24821 19.15567 -4.62317
319 1 0 34.40348 19.77327 -5.75194
320 1 0 33.25402 19.70339 9.44296
321 1 0 33.52277 20.1053 10.90452
322 1 0 32.83261 19.23013 11.96436
323 3 0 34.49323 18.27045 -5.58195
324 3 0 34.33651 19.17065 11.7518
325 2 0 31.54155 18.47358 2.86208
326 2 0 33.52677 19.20362 -3.25907
327 2 0 34.88787 20.03508 -6.75012
328 2 0 33.18905 18.56832 9.35682
329 2 0 35.1572 21.99298 -0.116
330 2 0 33.79554 21.7175 2.18034
331 2 0 32.53693 17.43213 0.91426
332 2 0 33.89838 17.7067 -1.37661
333 2 0 31.32868 20.31104 2.83907
334 2 0 33.96747 21.52644 3.76419
335 2 0 34.94704 21.86641 6.23943
336 2 0 32.85581 17.95419 7.60435
337 2 0 31.88649 17.61049 5.13044
338 2 0 34.8688 18.00798 -2.7875
339 2 0 36.3706 19.0362 -4.78316
340 2 0 33.3227 20.07795 -5.55531
341 2 0 32.26384 20.16154 9.11226
342 2 0 33.58901 21.20701 11.18896
343 2 0 32.46982 18.17911 11.71307
344 2 0 32.70992 19.59548 13.03685
345 1 0 14.17212 33.87866 20.80115
346 1 0 13.96062 35.16663 19.98355
347 1 0 14.60222 35.30513 18.58964
348 1 0 15.45979 34.15701 18.02348
349 1 0 15.60568 32.84218 18.81024
350 1 0 14.96548 32.7044 20.20151
351 1 0 16.25853 34.35084 16.72213
352 3 0 13.64923 33.77942 22.21184
353 1 0 15.4011 34.60878 15.46726
354 1 0 14.34834 35.73266 15.46303
355 1 0 13.61351 36.09369 14.15575
356 1 0 13.92142 35.31902 12.85835
357 1 0 14.90612 34.1372 12.88724
358 1 0 15.63685 33.77448 14.19346
359 3 0 13.32875 35.76415 11.54185
360 1 0 14.43591 32.68296 22.89225
361 1 0 13.99587 32.49877 24.35779
362 1 0 14.90474 33.00862 25.49056
363 1 0 14.36661 35.51951 10.47001
364 1 0 13.90448 36.12322 9.13139
365 1 0 14.54502 35.5067 7.87636
366 3 0 14.92495 31.55201 25.07426
367 3 0 13.08445 35.25978 8.21725
368 2 0 16.89555 33.42183 16.54924
369 2 0 15.54535 32.94323 22.86513
370 2 0 14.51331 33.05422 26.56025
371 2 0 14.53708 34.39819 10.35334
372 2 0 13.34551 36.02299 20.41696
373 2 0 14.46305 36.26417 17.98876
374 2 0 16.21422 31.98214 18.37475
375 2 0 15.09636 31.74097 20.7974
376 2 0 16.9525 35.2433 16.86722
377 2 0 14.13371 36.31564 16.41919
378 2 0 12.86076 36.94994 14.14341
379 2 0 15.11335 33.54569 11.93464
380 2 0 16.37632 32.9069 14.20946
381 2 0 14.26601 31.70864 22.32467
382 2 0 12.91236 32.24059 24.60063
383 2 0 15.92723 33.45025 25.24755
384 2 0 15.34471 36.01706 10.77904
385 2 0 13.71363 37.24379 9.048
386 2 0 15.02152 34.47164 7.90781
387 2 0 14.51667 36.0516 6.87583
388 1 0 23.74226 3.87675 23.61631
389 1 0 22.98813 2.63478 24.12706
390 1 0 22.15294 1.78736 23.14821
391 1 0 22.06942 2.19155 21.66368
392 1 0 22.88524 3.38813 21.14247
393 1 0 23.71843 4.23385 22.11971
394 1 0 21.09521 1.47107 20.71453
395 3 0 24.46435 4.77907 24.58466
396 1 0 21.38302 -0.02898 20.50614
397 1 0 21.53035 -0.96762 21.71804
398 1 0 21.65131 -2.4901 21.50186
399 1 0 21.64084 -3.06972 20.07284
400 1 0 21.58577 -2.12186 18.86218
401 1 0 21.46885 -0.60154 19.07821
402 3 0 21.59885 -4.56386 19.85295
403 1 0 24.63027 6.114 23.89583
404 1 0 25.34851 7.1319 24.80323
405 1 0 24.53863 8.26493 25.45858
406 1 0 20.74219 -4.82021 18.63383
407 1 0 20.49938 -6.33039 18.45967
408 1 0 20.14235 -6.77836 17.03231
409 3 0 25.3202 8.50582 24.18321
410 3 0 21.49123 -7.11235 17.64826
411 2 0 21.12351 1.99619 19.70349
412 2 0 23.60397 6.52282 23.61495
413 2 0 25.00983 8.9051 26.2757
414 2 0 21.2598 -4.39976 17.70899
415 2 0 23.0333 2.35382 25.23096
416 2 0 21.57856 0.87758 23.52578
417 2 0 22.84704 3.66572 20.03742
418 2 0 24.30102 5.13743 21.73949
419 2 0 20.04545 1.57425 21.14636
420 2 0 21.52124 -0.5392 22.77471
421 2 0 21.72343 -3.18884 22.39991
422 2 0 21.60641 -2.54772 17.80459
423 2 0 21.41453 0.09811 18.1797
424 2 0 25.24394 5.95913 22.94729
425 2 0 26.39229 6.90504 25.20159
426 2 0 23.43255 8.39196 25.21361
427 2 0 19.73692 -4.29992 18.76969
428 2 0 19.96199 -6.91828 19.27493
429 2 0 20.39629 -6.12782 16.13137
430 2 0 19.65741 -7.79158 16.83995
431 1 0 16.5201 22.57372 19.64603
432 1 0 16.47477 23.64693 18.5423
433 1 0 17.12185 23.36706 17.17235
434 1 0 17.81891 22.01709 16.91577
435 1 0 17.79552 20.9191 17.99416
436 1 0 17.14991 21.19887 19.36142
437 1 0 18.62948 21.7923 15.62678
438 3 0 15.99593 22.88015 21.02612
439 1 0 17.80677 21.85278 14.32451
440 1 0 16.91011 23.06904 14.02763
441 1 0 16.22216 23.20061 12.65332
442 1 0 16.41943 22.10717 11.58391
443 1 0 17.24116 20.84971 11.91664
444 1 0 17.92481 20.71678 13.29021
445 3 0 15.88338 22.29929 10.18451
446 1 0 16.63585 21.88496 21.96641
447 1 0 16.183 22.11199 23.42201
448 1 0 17.15653 22.75522 24.42581
449 1 0 16.87481 21.67611 9.2282
450 1 0 16.48881 21.99892 7.77331
451 1 0 17.03675 21.02514 6.71642
452 3 0 16.98385 21.25122 24.36572
453 3 0 15.5582 21.05572 7.06765
454 2 0 19.13858 20.77498 15.69475
455 2 0 17.76965 21.98678 21.90765
456 2 0 16.77992 23.1033 25.44391
457 2 0 16.8965 20.54682 9.38398
458 2 0 15.97923 24.65335 18.74513
459 2 0 17.10629 24.16573 16.35867
460 2 0 18.28405 19.9095 17.79001
461 2 0 17.15665 20.39585 20.17107
462 2 0 19.43499 22.59705 15.57523
463 2 0 16.7785 23.88492 14.81324
464 2 0 15.58787 24.11875 12.41957
465 2 0 17.36434 20.0274 11.13631
466 2 0 18.54447 19.7903 13.52984
467 2 0 16.33703 20.83384 21.64058
468 2 0 15.07627 22.06006 23.69051
469 2 0 18.22676 22.99158 24.11224
470 2 0 17.91117 22.10306 9.43653
471 2 0 16.4458 23.08261 7.42284
472 2 0 17.37388 19.9748 7.00372
473 2 0 17.07484 21.31593 5.61516
474 1 0 6.86868 22.14166 32.09256
475 1 0 6.91857 22.73464 33.5131
476 1 0 7.15581 21.81052 34.72286
477 1 0 7.33384 20.29541 34.50628
478 1 0 7.35958 19.71739 33.08
479 1 0 7.12245 20.63992 31.87287
480 1 0 7.38359 19.33767 35.71015
481 3 0 6.51982 23.01684 30.91542
482 1 0 8.57693 19.5537 36.66183
483 1 0 8.86105 20.94933 37.24743
484 1 0 9.95051 21.12427 38.32529
485 1 0 10.76501 19.90542 38.804
486 1 0 10.54128 18.53035 38.1511
487 1 0 9.45609 18.3567 37.07223
488 3 0 11.721 20.03233 39.96699
489 1 0 6.0477 22.09705 29.81309
490 1 0 5.64529 22.8871 28.55243
491 1 0 4.15441 23.0562 28.20918
492 1 0 11.65967 18.73996 40.74921
493 1 0 12.4659 18.86695 42.0545
494 1 0 12.94973 17.53851 42.66004
495 3 0 4.98693 21.97804 27.54593
496 3 0 13.92403 18.51191 42.01687
497 2 0 7.41329 18.26807 35.31796
498 2 0 5.15033 21.49815 30.18101
499 2 0 3.83475 23.79045 27.39786
500 2 0 12.07759 17.89001 40.11443
501 2 0 6.76199 23.85282 33.6704
502 2 0 7.17542 22.24302 35.77773
503 2 0 7.5236 18.60053 32.92073
504 2 0 7.11342 20.20825 30.8174
505 2 0 6.42325 19.47708 36.30803
506 2 0 8.24675 21.84671 36.9046
507 2 0 10.13632 22.15057 38.78586
508 2 0 11.16262 17.6342 38.48448
509 2 0 9.2827 17.33391 36.59936
510 2 0 6.89461 21.37972 29.55136
511 2 0 6.40548 23.5591 28.03268
512 2 0 3.36026 22.5376 28.8416
513 2 0 10.57293 18.51398 41.00933
514 2 0 12.17203 19.64736 42.83144
515 2 0 13.02916 16.59662 42.02292
516 2 0 13.28343 17.47729 43.74801
517 1 0 1.38245 7.30207 4.06274
518 1 0 2.10982 7.92713 5.26785
519 1 0 3.64223 8.08483 5.24226
520 1 0 4.441 7.6085 4.01375
521 1 0 3.70396 7.05501 2.78108
522 1 0 2.17459 6.89746 2.80708
523 1 0 5.97963 7.58507 4.04711
524 3 0 -0.10005 7.03444 4.12497
525 1 0 6.64594 8.96607 4.20616
526 1 0 6.2338 9.89947 5.35956
527 1 0 7.01788 11.2037 5.61156
528 1 0 8.20296 11.58003 4.69935
529 1 0 8.55343 10.69148 3.49319
530 1 0 7.768 9.39129 3.23953
531 3 0 9.07577 12.76831 5.02912
532 1 0 -0.39849 5.98769 3.0765
533 1 0 -1.89484 5.61902 3.05695
534 1 0 -2.35017 4.27236 3.64713
535 1 0 10.49326 12.41291 4.64149
536 1 0 11.46777 13.50341 5.12218
537 1 0 12.80172 13.57515 4.35999
538 3 0 -2.13628 4.43457 2.15604
539 3 0 11.744 14.65492 4.1995
540 2 0 6.35307 7.1039 3.0839
541 2 0 0.21419 5.05144 3.29417
542 2 0 -3.45909 4.06768 3.81431
543 2 0 10.56202 12.30091 3.5089
544 2 0 1.51693 8.25564 6.18445
545 2 0 4.18633 8.53048 6.13977
546 2 0 4.2949 6.73314 1.86085
547 2 0 1.63009 6.46139 1.90498
548 2 0 6.30064 6.93305 4.92514
549 2 0 5.36791 9.61179 6.04342
550 2 0 6.73668 11.87698 6.48768
551 2 0 9.41162 10.98354 2.80147
552 2 0 8.03816 8.72735 2.35299
553 2 0 -0.10097 6.4009 2.05618
554 2 0 -2.67876 6.42351 2.8623
555 2 0 -1.57781 3.5245 4.02628
556 2 0 10.77661 11.42437 5.13366
557 2 0 11.5598 13.73447 6.23448
558 2 0 12.90785 13.12625 3.31758
559 2 0 13.70059 14.11914 4.80145
560 1 0 12.74192 2.32855 28.61003
561 1 0 14.10796 3.02867 28.48432
562 1 0 14.50766 4.11933 29.49649
563 1 0 13.53468 4.51047 30.62542
564 1 0 12.20374 3.75583 30.79322
565 1 0 11.805 2.66759 29.78268
566 1 0 13.83528 5.72092 31.52736
567 3 0 12.29154 1.34646 27.55838
568 1 0 15.10871 5.58941 32.38613
569 1 0 16.45553 5.23411 31.72942
570 1 0 17.75166 5.26798 32.56502
571 1 0 17.69622 5.64162 34.06017
572 1 0 16.33849 5.90639 34.73369
573 1 0 15.04413 5.86878 33.90005
574 3 0 18.97028 5.83274 34.84935
575 1 0 10.78702 1.25201 27.66588
576 1 0 10.20643 0.27973 26.62043
577 1 0 9.46748 0.84162 25.39267
578 1 0 18.73338 6.95913 35.82964
579 1 0 20.0473 7.33604 36.53778
580 1 0 19.88375 8.03717 37.89688
581 3 0 8.70082 0.35574 26.60576
582 3 0 20.39635 6.60922 37.80408
583 2 0 12.942 5.88777 32.21509
584 2 0 10.3327 2.28543 27.50793
585 2 0 9.20249 0.15524 24.52192
586 2 0 17.95489 6.63803 36.59833
587 2 0 14.81416 2.75296 27.63294
588 2 0 15.51045 4.65275 29.39622
589 2 0 11.49992 4.02526 31.64861
590 2 0 10.80651 2.12722 29.88974
591 2 0 13.95192 6.63582 30.85767
592 2 0 16.49725 4.9742 30.61997
593 2 0 18.75381 5.0409 32.07098
594 2 0 16.29369 6.15514 35.84563
595 2 0 14.04039 6.07861 34.39831
596 2 0 10.5204 0.88162 28.71088
597 2 0 10.54228 -0.80957 26.60501
598 2 0 9.28743 1.96333 25.2983
599 2 0 18.34714 7.86999 35.26318
600 2 0 20.93433 7.71249 35.92907
601 2 0 18.91377 7.95136 38.48948
602 2 0 20.74489 8.62008 38.36319
603 1 0 10.36726 29.69982 -0.70211
604 1 0 10.94799 30.49441 0.48256
605 1 0 10.95703 32.0346 0.44314
606 1 0 10.39224 32.77284 -0.78575
607 1 0 9.74381 31.97777 -1.93311
608 1 0 9.73523 30.44062 -1.8936
609 1 0 10.56283 34.29619 -0.92485
610 3 0 10.46082 28.19519 -0.72692
611 1 0 9.8558 35.12987 0.16212
612 1 0 10.10315 34.83291 1.65278
613 1 0 9.52619 35.77337 2.73073
614 1 0 8.68917 37.00045 2.31623
615 1 0 8.36761 37.2421 0.83118
616 1 0 8.9406 36.30082 -0.24465
617 3 0 8.25336 38.01403 3.34836
618 1 0 10.30607 27.77249 -2.16963
619 1 0 10.4008 26.2418 -2.32254
620 1 0 11.67545 25.61832 -2.91893
621 1 0 8.30512 39.37744 2.697
622 1 0 8.05572 40.47894 3.74315
623 1 0 7.54092 41.8148 3.18104
624 3 0 10.4517 25.85767 -3.77949
625 3 0 6.63721 40.90175 3.99349
626 2 0 10.16763 34.61066 -1.94646
627 2 0 11.12384 28.26179 -2.79507
628 2 0 11.84037 24.49174 -2.86294
629 2 0 7.51836 39.43675 1.87388
630 2 0 11.38687 29.94329 1.37879
631 2 0 11.40246 32.62625 1.31016
632 2 0 9.29773 32.52781 -2.82648
633 2 0 9.28013 29.8498 -2.75629
634 2 0 11.67778 34.5288 -0.88117
635 2 0 10.7361 33.93465 1.95722
636 2 0 9.73966 35.57492 3.833
637 2 0 7.7252 38.13331 0.52569
638 2 0 8.71225 36.48953 -1.34557
639 2 0 9.28786 28.12417 -2.54361
640 2 0 9.67054 25.56597 -1.76612
641 2 0 12.50924 26.28895 -3.31215
642 2 0 9.33801 39.5322 2.23992
643 2 0 8.76431 40.59418 4.6284
644 2 0 7.04199 41.86848 2.15753
645 2 0 7.60532 42.77283 3.79489
646 1 0 6.80007 36.28509 6.54294
647 1 0 5.2676 36.38219 6.42396
648 1 0 4.52658 35.55509 5.35598
649 1 0 5.32362 34.64051 4.40601
650 1 0 6.84554 34.48801 4.57786
651 1 0 7.58483 35.31386 5.64364
652 1 0 4.62546 33.955 3.21786
653 3 0 7.54594 37.17705 7.50284
654 1 0 3.52678 32.9456 3.60573
655 1 0 2.38752 33.36328 4.55392
656 1 0 1.20503 32.40512 4.80484
657 1 0 1.17212 31.02411 4.11934
658 1 0 2.35601 30.57419 3.24576
659 1 0 3.53833 31.52954 2.99844
660 3 0 -0.05052 30.14348 4.22974
661 1 0 8.97926 37.22817 7.02638
662 1 0 9.84233 38.13098 7.92939
663 1 0 10.27094 39.51979 7.42278
664 1 0 -0.21629 29.42776 2.90834
665 1 0 -1.54844 28.65666 2.88204
666 1 0 -1.60885 27.48271 1.89023
667 3 0 11.20831 38.33357 7.32447
668 3 0 -1.55262 27.24414 3.39035
669 2 0 5.41621 33.41907 2.59638
670 2 0 9.00741 37.62997 5.96004
671 2 0 10.74105 40.26981 8.14111
672 2 0 0.65381 28.70741 2.75324
673 2 0 4.68485 37.07875 7.11302
674 2 0 3.39403 35.63784 5.2527
675 2 0 7.42858 33.78608 3.89449
676 2 0 8.71624 35.22268 5.75328
677 2 0 4.14994 34.76748 2.5753
678 2 0 2.40491 34.39124 5.04704
679 2 0 0.34316 32.72822 5.47769
680 2 0 2.34574 29.54206 2.76112
681 2 0 4.40829 31.19925 2.33976
682 2 0 9.40384 36.16993 7.03898
683 2 0 9.93842 37.90137 9.04189
684 2 0 10.01428 39.84459 6.36061
685 2 0 -0.22053 30.19691 2.06683
686 2 0 -2.53387 29.21893 2.99082
687 2 0 -0.65598 27.00066 1.49143
688 2 0 -2.60762 27.03867 1.56761
689 1 0 0.68126 14.56724 32.98211
690 1 0 0.80825 15.74985 32.00487
691 1 0 2.19564 16.17822 31.49248
692 1 0 3.45442 15.42033 31.95265
693 1 0 3.33027 14.26114 32.9585
694 1 0 1.94314 13.8344 33.47268
695 1 0 4.58359 13.47605 33.38664
696 4 0 4.81162 15.81691 31.42323
697 4 0 1.81983 12.69457 34.45463
698 1 0 2.3168 17.32341 30.4713
699 1 0 0.92151 17.61205 29.88735
700 2 0 5.02528 13.94508 34.32708
701 2 0 5.35453 13.50863 32.54746
702 2 0 4.29738 12.39324 33.59974
703 2 0 3.03034 17.01923 29.63567
704 2 0 2.71389 18.25694 30.99127
705 2 0 0.99368 18.46177 29.13084
706 2 0 0.21333 17.90956 30.72985
707 2 0 0.52487 16.67536 29.37275
708 1 0 -0.70197 14.16636 33.52375
709 1 0 -1.65278 15.37116 33.39887
710 2 0 -0.12499 16.30469 31.65655
711 2 0 -0.60862 13.85938 34.61763
712 2 0 -1.11139 13.29316 32.91596
713 2 0 -1.73359 15.67777 32.3037
714 2 0 -1.24163 16.24352 34.00659
715 2 0 -2.68379 15.08518 33.79228
716 2 0 4.90253 16.65528 30.70138
717 2 0 5.71836 15.27063 31.75738
718 2 0 0.81962 12.38828 34.8262
719 2 0 2.72946 12.16402 34.80573
720 1 0 29.85566 32.14925 21.36203
721 1 0 30.44094 31.24678 22.46325
722 1 0 29.7621 29.90649 22.80039
723 1 0 28.5022 29.46657 22.03238
724 1 0 27.89619 30.38643 20.95653
725 1 0 28.57369 31.72774 20.62113
726 1 0 26.66117 29.92864 20.15923
727 4 0 27.85647 28.1364 22.3377
728 4 0 27.98346 32.62781 19.56276
729 1 0 30.38028 28.97841 23.86127
730 1 0 31.81404 29.45555 24.15755
731 2 0 25.71432 30.29163 20.68002
732 2 0 26.65024 28.79018 20.10066
733 2 0 26.70746 30.36425 19.10666
734 2 0 30.4022 27.9079 23.4695
735 2 0 29.75802 29.02295 24.81539
736 2 0 32.28511 28.77966 24.94546
737 2 0 31.7834 30.52809 24.54298
738 2 0 32.43231 29.41494 23.20067
739 1 0 30.51247 33.5062 21.05431
740 1 0 31.32911 33.95257 22.2811
741 2 0 31.37964 31.5682 23.02509
742 2 0 29.70474 34.27758 20.82615
743 2 0 31.20395 33.40009 20.15425
744 2 0 32.12837 33.17187 22.50833
745 2 0 30.63637 34.05753 23.18025
746 2 0 31.82585 34.95534 22.06374
747 2 0 28.29018 27.47453 23.11618
748 2 0 26.94713 27.82151 21.78433
749 2 0 28.47147 33.59546 19.32239
750 2 0 27.06098 32.32227 19.02622
751 1 0 31.23554 0.79495 14.5967
752 1 0 31.34544 1.71952 13.37082
753 1 0 32.22533 1.31003 12.17542
754 1 0 32.98994 -0.02612 12.20381
755 1 0 32.90872 -0.93317 13.44538
756 1 0 32.03076 -0.5225 14.64168
757 1 0 33.63918 -2.28846 13.45755
758 4 0 33.82465 -0.445 11.0175
759 4 0 31.94617 -1.41364 15.85715
760 1 0 32.28947 2.20732 10.92654
761 1 0 31.14147 3.23121 10.99644
762 2 0 34.68083 -2.15691 13.9016
763 2 0 33.72745 -2.67943 12.39031
764 2 0 33.04764 -3.03152 14.08822
765 2 0 32.18124 1.56848 9.9884
766 2 0 33.28892 2.75508 10.90205
767 2 0 31.17747 3.90685 10.07896
768 2 0 31.25403 3.86145 11.93982
769 2 0 30.14378 2.68052 11.02615
770 1 0 30.38751 1.22458 15.80652
771 1 0 30.23014 2.75623 15.78426
772 2 0 30.77133 2.70435 13.34587
773 2 0 30.90665 0.9033 16.76922
774 2 0 29.35987 0.73496 15.7454
775 2 0 29.7188 3.07023 14.81479
776 2 0 31.25855 3.24419 15.84477
777 2 0 29.59844 3.08724 16.6736
778 2 0 33.88723 0.21033 10.12373
779 2 0 34.37672 -1.40778 11.04028
780 2 0 31.31421 -1.11634 16.72001
781 2 0 32.51694 -2.36519 15.88813
782 1 0 0.3677 -1.0758 27.99676
783 1 0 -0.00309 0.21854 28.74302
784 1 0 0.94928 1.42784 28.70471
785 1 0 2.26873 1.34442 27.91554
786 1 0 2.65622 0.03734 27.19984
787 1 0 1.70497 -1.17266 27.24019
788 1 0 3.95499 -0.03322 26.37599
789 4 0 3.18636 2.54147 27.84799
790 4 0 2.08141 -2.45278 26.53434
791 1 0 0.55155 2.74054 29.40297
792 1 0 -0.94901 2.68199 29.7436
793 2 0 4.80582 -0.40797 27.03567
794 2 0 4.20897 1.00587 25.98172
795 2 0 3.80916 -0.74833 25.50012
796 2 0 0.75655 3.62206 28.70955
797 2 0 1.15651 2.86041 30.36171
798 2 0 -1.25894 3.64694 30.26549
799 2 0 -1.14598 1.79486 30.4321
800 2 0 -1.55094 2.55681 28.78363
801 1 0 -0.5665 -2.29621 28.06934
802 1 0 -1.45116 -2.17092 29.32349
803 2 0 -0.98487 0.28344 29.31922
804 2 0 0.05576 -3.2495 28.12892
805 2 0 -1.22553 -2.32814 27.13973
806 2 0 -2.06315 -1.21099 29.26075
807 2 0 -0.79066 -2.13846 30.25197
808 2 0 -2.15255 -3.0674 29.38603
809 2 0 2.90986 3.48281 28.36725
810 2 0 4.13813 2.47911 27.28009
811 2 0 1.3959 -3.32537 26.56502
812 2 0 3.04413 -2.52144 25.98602
813 1 0 11.04517 6.46151 5.09174
814 1 0 11.88722 5.33553 5.7185
815 1 0 13.0364 4.69744 4.91656
816 1 0 13.34681 5.18947 3.49099
817 1 0 12.48098 6.29023 2.85106
818 1 0 11.33035 6.92658 3.65213
819 1 0 12.81686 6.81187 1.44195
820 4 0 14.49587 4.58901 2.71727
821 4 0 10.48433 8.00959 3.02765
822 1 0 13.91427 3.61187 5.56451
823 1 0 13.65757 3.61245 7.08281
824 2 0 12.23275 6.21633 0.66498
825 2 0 13.93444 6.69207 1.25141
826 2 0 12.53348 7.91376 1.36883
827 2 0 15.01359 3.83286 5.35812
828 2 0 13.64193 2.59315 5.13142
829 2 0 14.29854 2.81006 7.57766
830 2 0 12.55556 3.39665 7.27991
831 2 0 13.92574 4.63387 7.51212
832 1 0 9.87218 7.07012 5.87982
833 1 0 9.4206 6.06418 6.95469
834 2 0 11.66346 4.97809 6.77787
835 2 0 9.00858 7.28981 5.16886
836 2 0 10.20968 8.03702 6.38051
837 2 0 10.29195 5.84268 7.65585
838 2 0 9.08411 5.0978 6.45244
839 2 0 8.55445 6.50585 7.54989
840 2 0 15.11791 3.79236 3.1762
841 2 0 14.71723 4.94362 1.68891
842 2 0 9.6539 8.467 3.60511
843 2 0 10.69214 8.34723 1.99083
844 1 0 2.54127 26.52149 14.74587
845 1 0 1.2974 26.18754 15.58906
846 1 0 1.43466 25.96272 17.10613
847 1 0 2.81424 26.07778 17.78011
848 1 0 4.06345 26.37558 16.93063
849 1 0 3.92647 26.598 15.41328
850 1 0 5.43644 26.53222 17.60951
851 4 0 2.94431 25.89257 19.27286
852 4 0 5.14979 26.89537 14.58038
853 1 0 0.18268 25.68564 17.95742
854 1 0 -1.06549 26.03048 17.12418
855 2 0 5.96916 25.52461 17.63073
856 2 0 5.28974 26.90724 18.67604
857 2 0 6.0645 27.28256 17.02442
858 2 0 0.20848 26.32784 18.89915
859 2 0 0.15572 24.58356 18.24766
860 2 0 -2.00279 25.82681 17.74025
861 2 0 -1.08032 25.38842 16.18217
862 2 0 -1.03309 27.13163 16.83101
863 1 0 2.40802 26.70642 13.22421
864 1 0 1.12957 25.99298 12.747
865 2 0 0.27435 26.11208 15.0913
866 2 0 3.31801 26.2576 12.7046
867 2 0 2.3383 27.81762 12.9795
868 2 0 0.22541 26.44099 13.27778
869 2 0 1.20064 24.88221 12.99303
870 2 0 1.01624 26.12723 11.62065
871 2 0 2.04489 25.67357 19.88546
872 2 0 3.93992 25.97408 19.75699
873 2 0 5.05068 27.05416 13.48619
874 2 0 6.1481 26.95385 15.0622
875 1 0 28.73277 20.69115 20.91164
876 1 0 29.14137 21.07248 22.34598
877 1 0 29.06282 22.54071 22.80314
878 1 0 28.57021 23.62573 21.82805
879 1 0 28.19663 23.24929 20.38252
880 1 0 28.27749 21.78147 19.92473
881 1 0 27.66425 24.32641 19.41977
882 4 0 28.45909 25.06004 22.28623
883 4 0 27.90628 21.41054 18.50936
884 1 0 29.41661 22.91284 24.25411