#epon2 and detda molecules
3744 atoms
4 atom types

-20.0 70.0 xlo xhi
-20.0 70.0 ylo yhi
-20.0 70.0 zlo zhi

Masses

1 12.0
2 1.008
3 15.999
4 14.0

Atoms

1 1 0 12.03696 51.99398 21.74321
2 1 0 13.17104 51.59995 22.70791
3 1 0 12.87427 51.42037 24.20907
4 1 0 11.44506 51.64413 24.73959
5 1 0 10.29988 51.96278 23.7618
6 1 0 10.59648 52.14225 22.26371
7 1 0 11.16957 51.65348 26.25388
8 3 0 12.33838 52.28778 20.29541
9 1 0 11.4521 50.31935 26.97268
10 1 0 12.8192 49.6276 26.81787
11 1 0 13.15346 48.38496 27.66842
12 1 0 12.11345 47.82676 28.66087
13 1 0 10.71622 48.46526 28.74601
14 1 0 10.3814 49.70363 27.89391
15 3 0 12.48314 46.71158 29.61075
16 1 0 11.19083 53.11998 19.77136
17 1 0 11.39723 53.49762 18.29144
18 1 0 11.8004 54.9377 17.92708
19 1 0 11.76382 46.96839 30.91553
20 1 0 12.2402 45.97656 31.99221
21 1 0 11.25766 45.74395 33.1524
22 3 0 10.3544 54.49229 17.84873
23 3 0 11.51559 44.66719 32.11101
24 2 0 10.07848 51.93793 26.41929
25 2 0 11.10271 54.0725 20.39126
26 2 0 12.14106 55.1848 16.86763
27 2 0 10.63953 46.86219 30.75829
28 2 0 14.2317 51.45936 22.31444
29 2 0 13.71467 51.14639 24.92938
30 2 0 9.23736 52.09619 24.15282
31 2 0 9.75356 52.40596 21.54234
32 2 0 11.82788 52.45627 26.72429
33 2 0 13.59337 50.05122 26.0958
34 2 0 14.17887 47.89417 27.58116
35 2 0 9.93682 48.03593 29.4591
36 2 0 9.34989 50.18341 27.96854
37 2 0 10.22866 52.51655 19.87347
38 2 0 11.51636 52.68105 17.5049
39 2 0 11.87173 55.73389 18.73984
40 2 0 11.99478 48.02869 31.26503
41 2 0 13.33577 45.95994 32.30607
42 2 0 10.14914 45.98514 33.04105
43 2 0 11.60799 45.28215 34.13362
44 1 0 16.28241 17.11481 20.69433
45 1 0 15.80264 17.89356 19.45522
46 1 0 14.38839 18.50446 19.43253
47 1 0 13.45723 18.32609 20.64714
48 1 0 13.96715 17.6135 21.91254
49 1 0 15.37856 17.00365 21.93473
50 1 0 11.98385 18.76442 20.56928
51 3 0 17.61681 16.41301 20.68133
52 1 0 11.76721 20.2764 20.36096
53 1 0 12.46555 21.00878 19.20019
54 1 0 12.11552 22.48016 18.89719
55 1 0 11.07919 23.22139 19.76597
56 1 0 10.45201 22.51482 20.98029
57 1 0 10.80451 21.04694 21.2849
58 3 0 10.61135 24.60655 19.38516
59 1 0 17.56414 15.35627 21.76049
60 1 0 18.87961 14.55637 21.8318
61 1 0 18.92146 13.11838 21.28446
62 1 0 9.14464 24.70439 19.73873
63 1 0 8.55367 26.02239 19.20625
64 1 0 7.28702 26.51345 19.92734
65 3 0 18.73437 13.3811 22.7648
66 3 0 8.61678 27.23036 20.09532
67 2 0 11.46247 18.44602 21.53133
68 2 0 16.7031 14.641 21.54528
69 2 0 19.92083 12.5856 21.15429
70 2 0 9.02115 24.65156 20.87098
71 2 0 16.48636 18.00194 18.54947
72 2 0 14.02283 19.06621 18.51004
73 2 0 13.28722 17.51098 22.82183
74 2 0 15.74729 16.45105 22.8616
75 2 0 11.50052 18.21321 19.69654
76 2 0 13.2193 20.45456 18.54836
77 2 0 12.60485 23.01196 18.01532
78 2 0 9.70674 23.07114 21.64012
79 2 0 10.32828 20.52103 22.17732
80 2 0 17.38287 15.86955 22.76248
81 2 0 19.8648 15.09396 22.03186
82 2 0 17.96828 12.6259 20.89915
83 2 0 8.58777 23.83237 19.25999
84 2 0 8.55922 26.23758 18.087
85 2 0 7.02852 26.14796 20.97566
86 2 0 6.603 27.28884 19.44809
87 1 0 55.22112 56.28022 43.4958
88 1 0 54.77741 54.85158 43.12952
89 1 0 54.34347 54.52861 41.68689
90 1 0 54.34758 55.63917 40.61881
91 1 0 54.86391 57.04596 40.97009
92 1 0 55.29662 57.36804 42.41006
93 1 0 53.74243 55.38269 39.22703
94 3 0 55.53362 56.63553 44.92737
95 1 0 54.45645 54.2954 38.39976
96 1 0 54.69587 52.89639 38.99717
97 1 0 55.25818 51.76681 38.10994
98 1 0 55.59516 52.04288 36.63062
99 1 0 55.44091 53.46426 36.06225
100 1 0 54.88306 54.59281 36.94933
101 3 0 55.99496 50.91166 35.71244
102 1 0 55.41491 58.13799 45.03954
103 1 0 55.69995 58.62105 46.47508
104 1 0 54.53097 59.079 47.36553
105 1 0 55.40954 51.20371 34.34942
106 1 0 55.61648 50.0014 33.41051
107 1 0 55.58696 50.3282 31.9079
108 3 0 55.37649 60.08696 46.61416
109 3 0 56.8827 49.94829 32.60586
110 2 0 53.75764 56.36076 38.64232
111 2 0 54.36184 58.45578 44.74055
112 2 0 54.69645 59.25511 48.47959
113 2 0 55.90827 52.13059 33.91102
114 2 0 54.75283 54.03921 43.92892
115 2 0 53.99707 53.47659 41.41585
116 2 0 54.8962 57.85729 40.16989
117 2 0 55.65289 58.41767 42.67796
118 2 0 52.65754 55.06402 39.37057
119 2 0 54.4307 52.68929 40.08665
120 2 0 55.40118 50.72128 38.54165
121 2 0 55.71649 53.6759 34.97618
122 2 0 54.75683 55.6423 36.52223
123 2 0 56.16646 58.61559 44.32725
124 2 0 56.7042 58.39489 46.96495
125 2 0 53.4747 59.13036 46.9398
126 2 0 54.29116 51.39618 34.45856
127 2 0 55.15934 48.99037 33.67109
128 2 0 55.76814 51.38956 31.53363
129 2 0 55.42899 49.50799 31.1326
130 1 0 47.44617 27.82068 44.40422
131 1 0 47.41614 27.96267 45.93752
132 1 0 48.7342 28.11784 46.72009
133 1 0 50.07745 28.12187 45.96522
134 1 0 50.0989 28.05659 44.42759
135 1 0 48.78326 27.90141 43.64688
136 1 0 51.40632 28.08688 46.74106
137 3 0 46.17444 27.54977 43.64093
138 1 0 51.66694 29.3143 47.63658
139 1 0 50.61309 29.76299 48.66591
140 1 0 50.94743 30.88495 49.67027
141 1 0 52.32988 31.56729 49.63279
142 1 0 53.34616 31.17964 48.54464
143 1 0 53.01068 30.06205 47.53956
144 3 0 52.72662 32.55286 50.70695
145 1 0 46.58169 26.95774 42.31139
146 1 0 45.3534 26.62257 41.44286
147 1 0 44.92734 25.15372 41.26941
148 1 0 54.20208 32.3624 50.97639
149 1 0 54.63575 33.20181 52.1918
150 1 0 56.13361 33.54573 52.25229
151 3 0 45.76732 25.84847 40.21718
152 3 0 55.09295 34.61035 51.9456
153 2 0 52.25855 27.98992 45.9907
154 2 0 47.18294 26.00619 42.49134
155 2 0 43.92166 24.90289 40.79484
156 2 0 54.80053 32.67116 50.05631
157 2 0 46.42143 27.93463 46.49371
158 2 0 48.71747 28.20508 47.85689
159 2 0 51.09239 28.09214 43.86961
160 2 0 48.80004 27.82476 42.50922
161 2 0 51.40041 27.15932 47.40342
162 2 0 49.59732 29.24627 48.7033
163 2 0 50.18107 31.19248 50.45643
164 2 0 54.35805 31.70331 48.49848
165 2 0 53.77054 29.76703 46.74248
166 2 0 47.23409 27.71443 41.76175
167 2 0 44.61603 27.44315 41.15552
168 2 0 45.56005 24.31859 41.71865
169 2 0 54.40018 31.26225 51.20039
170 2 0 54.16533 33.0112 53.2123
171 2 0 56.78354 33.50788 51.31658
172 2 0 56.61706 33.89065 53.22496
173 1 0 41.31442 38.1643 46.80178
174 1 0 40.2978 37.00745 46.81678
175 1 0 39.28871 36.88719 47.97483
176 1 0 39.307 37.92081 49.11739
177 1 0 40.27296 39.11776 49.05997
178 1 0 41.28014 39.23731 47.90421
179 1 0 38.43746 37.71169 50.37007
180 3 0 42.38156 38.22463 45.73835
181 1 0 36.91763 37.71316 50.11214
182 1 0 36.31006 36.78651 49.04275
183 1 0 34.77805 36.67084 48.90538
184 1 0 33.85634 37.4946 49.82736
185 1 0 34.4668 38.48736 50.83181
186 1 0 35.99642 38.60548 50.96615
187 3 0 32.3619 37.27333 49.81168
188 1 0 43.48292 39.10915 46.27563
189 1 0 44.64634 39.23415 45.27252
190 1 0 45.96149 38.48099 45.54133
191 1 0 31.86342 37.43435 51.22992
192 1 0 30.3789 37.03746 51.32255
193 1 0 29.60838 37.64643 52.50618
194 3 0 45.81612 39.94463 45.90473
195 3 0 29.35028 38.10356 51.0797
196 2 0 38.68511 38.53237 51.12101
197 2 0 43.87628 38.67001 47.25121
198 2 0 46.75448 38.40722 44.7257
199 2 0 31.99847 38.51709 51.5608
200 2 0 40.30426 36.23139 45.98175
201 2 0 38.54637 36.02201 47.99898
202 2 0 40.26248 39.89872 49.89041
203 2 0 42.01525 40.10864 47.87528
204 2 0 38.71873 36.70624 50.82733
205 2 0 36.99259 36.16551 48.37289
206 2 0 34.32729 35.95739 48.13873
207 2 0 33.78571 39.11767 51.49448
208 2 0 36.4467 39.33196 51.72063
209 2 0 43.05034 40.14449 46.47871
210 2 0 44.45719 39.64781 44.22718
211 2 0 46.0976 37.89745 46.51114
212 2 0 32.46881 36.75452 51.91627
213 2 0 30.05582 35.97657 51.05952
214 2 0 29.98955 38.58006 53.03762
215 2 0 28.61525 37.20465 52.84869
216 1 0 54.94004 29.36306 40.15244
217 1 0 53.98419 28.28296 39.61226
218 1 0 53.32962 28.4595 38.22873
219 1 0 53.62815 29.7206 37.39524
220 1 0 54.64231 30.76028 37.90472
221 1 0 55.29518 30.58394 39.28571
222 1 0 52.84288 30.00258 36.10184
223 3 0 55.4922 29.2585 41.55155
224 1 0 53.04139 28.96131 34.98257
225 1 0 52.82212 27.46376 35.26665
226 1 0 52.85886 26.44719 34.1071
227 1 0 53.13086 26.92844 32.66745
228 1 0 53.44001 28.41193 32.40127
229 1 0 53.40703 29.42611 33.55974
230 3 0 53.01302 25.97074 31.50492
231 1 0 55.92749 30.64883 41.95348
232 1 0 56.49999 30.66946 43.38428
233 1 0 55.66036 31.2686 44.52672
234 1 0 52.44415 26.74244 30.33585
235 1 0 52.11976 25.78757 29.17271
236 1 0 52.06689 26.4408 27.7813
237 3 0 56.73446 32.08726 43.84003
238 3 0 53.20206 25.50796 28.17068
239 2 0 53.15016 31.02792 35.7107
240 2 0 55.03346 31.35383 41.89856
241 2 0 55.98205 31.12069 45.61031
242 2 0 53.19652 27.52883 29.9959
243 2 0 53.74747 27.36341 40.24311
244 2 0 52.60735 27.6709 37.83297
245 2 0 54.88575 31.67654 37.27161
246 2 0 56.02547 31.36784 39.67634
247 2 0 51.73436 30.03334 36.36524
248 2 0 52.60466 27.11144 36.32909
249 2 0 52.6602 25.34318 34.31114
250 2 0 53.66908 28.76421 31.34121
251 2 0 53.62312 30.5272 33.35806
252 2 0 56.72905 31.00325 41.22396
253 2 0 57.39928 30.02075 43.649
254 2 0 54.65651 31.75946 44.30109
255 2 0 51.48328 27.26054 30.66452
256 2 0 51.35931 24.95112 29.31806
257 2 0 52.57799 27.43988 27.58131
258 2 0 51.55476 25.91833 26.90749
259 1 0 4.37956 17.79676 22.26655
260 1 0 4.12077 17.80757 23.78476
261 1 0 2.67704 17.73586 24.31796
262 1 0 1.49785 17.66203 23.32892
263 1 0 1.76417 17.57443 21.8155
264 1 0 3.20516 17.64634 21.28367
265 1 0 0.049 17.7789 23.83511
266 3 0 5.77677 17.98573 21.73231
267 1 0 -0.4009 16.64744 24.78052
268 1 0 0.43288 16.29915 26.02749
269 1 0 -0.10733 15.28371 27.05529
270 1 0 -1.47357 14.60628 26.82584
271 1 0 -2.26088 14.88785 25.53432
272 1 0 -1.7195 15.89886 24.50646
273 3 0 -2.08502 13.73372 27.89699
274 1 0 5.63717 18.44441 20.29907
275 1 0 7.0127 18.68703 19.64761
276 1 0 7.49624 20.12978 19.41565
277 1 0 -3.58022 13.95559 27.86565
278 1 0 -4.25095 13.24263 29.05381
279 1 0 -5.74122 12.91211 28.86576
280 3 0 6.85129 19.33721 18.29703
281 3 0 -4.6857 11.81836 28.86388
282 2 0 -0.64645 17.80413 22.93264
283 2 0 5.03432 19.4114 20.27028
284 2 0 8.57797 20.32844 19.11577
285 2 0 -4.00388 13.5593 26.88408
286 2 0 4.99508 17.88691 24.51199
287 2 0 2.48014 17.76184 25.44079
288 2 0 0.89122 17.48744 21.08747
289 2 0 3.40195 17.60974 20.16101
290 2 0 -0.04767 18.76761 24.3939
291 2 0 1.43524 16.81316 26.20423
292 2 0 0.49242 15.05282 27.99706
293 2 0 -3.25795 14.36603 25.35041
294 2 0 -2.31111 16.1162 23.55644
295 2 0 5.08165 17.63938 19.71288
296 2 0 7.77215 17.83919 19.58423
297 2 0 6.80981 21.00778 19.65548
298 2 0 -3.79194 15.07328 27.94103
299 2 0 -3.97438 13.53181 30.12102
300 2 0 -6.20481 12.85935 27.82571
301 2 0 -6.40469 12.66729 29.75944
302 1 0 48.90044 29.11369 33.67845
303 1 0 48.55578 28.36366 34.97873
304 1 0 47.83657 27.00272 34.91238
305 1 0 47.45793 26.40217 33.54485
306 1 0 47.87172 27.11765 32.24643
307 1 0 48.58922 28.47604 32.31301
308 1 0 46.5776 25.14213 33.46504
309 3 0 49.49606 30.49768 33.73437
310 1 0 47.2011 23.87518 34.08351
311 1 0 47.73834 23.89851 35.52651
312 1 0 48.2064 22.58933 36.19455
313 1 0 48.15128 21.26143 35.41235
314 1 0 47.70037 21.25709 33.94136
315 1 0 47.2367 22.56497 33.2734
316 3 0 48.45548 19.95271 36.1032
317 1 0 49.22967 31.14145 32.39323
318 1 0 49.78458 32.5782 32.33668
319 1 0 48.81164 33.76862 32.41036
320 1 0 47.53588 18.90502 35.51794
321 1 0 47.65759 17.58771 36.30521
322 1 0 47.23738 16.32248 35.5383
323 3 0 49.33131 33.27132 31.07692
324 3 0 48.69647 16.59843 35.86287
325 2 0 46.33892 24.93882 32.36939
326 2 0 48.1058 31.16728 32.20463
327 2 0 49.2121 34.82509 32.56214
328 2 0 47.80412 18.73088 34.42352
329 2 0 48.81619 28.82355 35.98881
330 2 0 47.56349 26.45277 35.87319
331 2 0 47.61868 26.65526 31.23559
332 2 0 48.87137 29.02049 31.35156
333 2 0 45.60246 25.36135 34.01292
334 2 0 47.76299 24.87826 36.10933
335 2 0 48.56978 22.5997 37.27519
336 2 0 47.68601 20.28016 33.35341
337 2 0 46.89011 22.55715 32.18731
338 2 0 49.73078 30.51403 31.58358
339 2 0 50.89532 32.76863 32.50875
340 2 0 47.68651 33.58632 32.43092
341 2 0 46.45972 19.2752 35.58565
342 2 0 47.39769 17.56148 37.41463
343 2 0 47.19839 16.31154 34.39911
344 2 0 47.00015 15.35408 36.09029
345 1 0 6.891 32.61067 13.0877
346 1 0 7.27685 31.49071 12.1034
347 1 0 8.31825 30.43234 12.51466
348 1 0 8.97524 30.50437 13.90654
349 1 0 8.53136 31.57923 14.91485
350 1 0 7.49221 32.63556 14.50397
351 1 0 10.14769 29.57302 14.2629
352 3 0 5.9638 33.71768 12.65395
353 1 0 9.80253 28.07063 14.27296
354 1 0 9.13037 27.41956 13.04995
355 1 0 8.94029 25.88962 13.00005
356 1 0 9.40841 25.01506 14.1808
357 1 0 9.99561 25.67759 15.43913
358 1 0 10.18179 27.20548 15.49028
359 3 0 9.37353 23.50812 14.07842
360 1 0 6.19691 34.87595 13.59634
361 1 0 5.30725 36.08253 13.23852
362 1 0 5.9363 37.31076 12.55669
363 1 0 10.58263 22.97431 14.81256
364 1 0 10.71555 21.45682 14.59014
365 1 0 11.51763 20.70288 15.66427
366 3 0 5.69934 37.28911 14.05295
367 3 0 10.01056 20.54191 15.54907
368 2 0 10.54189 29.86798 15.29069
369 2 0 7.2914 35.18999 13.54336
370 2 0 5.2694 38.12326 12.11553
371 2 0 10.48158 23.19734 15.92614
372 2 0 6.80602 31.45587 11.06576
373 2 0 8.62001 29.61215 11.78225
374 2 0 8.99581 31.6107 15.95549
375 2 0 7.18319 33.44931 15.24068
376 2 0 10.97418 29.74203 13.49643
377 2 0 8.7998 28.06567 12.1705
378 2 0 8.47619 25.40317 12.07923
379 2 0 10.3161 25.03404 16.32425
380 2 0 10.62966 27.69313 16.41839
381 2 0 5.95636 34.53457 14.65742
382 2 0 4.17268 35.9719 13.22638
383 2 0 7.06273 37.35559 12.38722
384 2 0 11.51804 23.48763 14.41099
385 2 0 10.85744 21.04621 13.53642
386 2 0 11.67578 21.14941 16.70109
387 2 0 11.93248 19.6608 15.46242
388 1 0 37.12898 32.438 -0.19552
389 1 0 36.95574 32.97648 1.23699
390 1 0 35.65154 33.69372 1.63504
391 1 0 34.52946 33.87629 0.59497
392 1 0 34.67533 33.27008 -0.81226
393 1 0 35.97721 32.55459 -1.20929
394 1 0 33.30392 34.74984 0.91749
395 3 0 38.44388 31.84125 -0.62936
396 1 0 32.42979 34.23722 2.07918
397 1 0 33.06365 33.91523 3.44519
398 1 0 32.16345 33.56408 4.64754
399 1 0 30.63137 33.51989 4.4774
400 1 0 30.00772 33.75219 3.09022
401 1 0 30.90698 34.09903 1.88907
402 3 0 29.73278 33.33416 5.67765
403 1 0 38.47345 31.90255 -2.13914
404 1 0 39.78881 31.32913 -2.70161
405 1 0 40.85703 32.28893 -3.25553
406 1 0 28.49378 34.17068 5.45195
407 1 0 27.61752 34.1796 6.71765
408 1 0 26.13085 34.49811 6.48557
409 3 0 39.88727 31.58658 -4.1838
410 3 0 26.58636 33.09868 6.86577
411 2 0 32.66164 34.82898 -0.02057
412 2 0 38.36505 32.9867 -2.47409
413 2 0 41.90241 31.90289 -3.49573
414 2 0 27.90358 33.74817 4.57263
415 2 0 37.79847 32.86049 1.9959
416 2 0 35.52652 34.10977 2.68929
417 2 0 33.83037 33.3787 -1.56981
418 2 0 36.09739 32.12954 -2.26063
419 2 0 33.67845 35.79173 1.18828
420 2 0 34.19557 33.96451 3.57366
421 2 0 32.62974 33.36157 5.66808
422 2 0 28.87679 33.69195 2.95738
423 2 0 30.44163 34.28411 0.86488
424 2 0 37.59679 31.29618 -2.5442
425 2 0 40.08719 30.25312 -2.47183
426 2 0 40.64361 33.40709 -3.31684
427 2 0 28.80603 35.24099 5.21394
428 2 0 28.0314 34.5983 7.69359
429 2 0 25.65625 34.3712 5.45696
430 2 0 25.45972 34.82399 7.34706
431 1 0 52.81396 43.29315 47.59012
432 1 0 52.98076 42.75168 49.02227
433 1 0 54.36127 42.79848 49.70477
434 1 0 55.57092 43.37955 48.94762
435 1 0 55.38439 43.98897 47.5466
436 1 0 54.00653 43.94181 46.86561
437 1 0 56.9876 43.26345 49.53803
438 3 0 51.49774 43.14459 46.86986
439 1 0 57.19797 44.00945 50.87056
440 1 0 56.24748 43.76388 52.05703
441 1 0 56.56016 44.38371 53.43447
442 1 0 57.81467 45.26144 53.61875
443 1 0 58.71153 45.57919 52.40968
444 1 0 58.39702 44.96332 51.03364
445 3 0 58.21737 45.7425 54.99315
446 1 0 51.79216 43.27179 45.39298
447 1 0 50.51265 43.12004 44.54729
448 1 0 50.27555 41.81858 43.76045
449 1 0 59.72807 45.73506 55.05303
450 1 0 60.20727 46.03317 56.4853
451 1 0 61.63592 46.59163 56.59751
452 3 0 50.85366 43.04303 43.08078
453 3 0 60.42417 47.46819 56.86907
454 2 0 57.73071 43.66133 48.77106
455 2 0 52.53959 42.46722 45.08745
456 2 0 49.25797 41.61316 43.28943
457 2 0 60.14192 46.51656 54.3333
458 2 0 52.08808 42.30049 49.5692
459 2 0 54.49287 42.38216 50.75811
460 2 0 56.27457 44.44734 47.00152
461 2 0 53.87336 44.36787 45.81624
462 2 0 57.20455 42.15813 49.71216
463 2 0 55.32925 43.10116 51.92352
464 2 0 55.87688 44.17235 54.32239
465 2 0 59.62376 46.25111 52.53875
466 2 0 59.07064 45.1892 50.14202
467 2 0 52.24858 44.299 45.20107
468 2 0 49.63495 43.82979 44.70703
469 2 0 51.07552 41.00654 43.74517
470 2 0 60.1073 44.70472 54.7459
471 2 0 59.91657 45.33665 57.33936
472 2 0 62.14638 47.08363 55.7049
473 2 0 62.1987 46.56733 57.5882
474 1 0 23.11861 38.31581 51.38953
475 1 0 22.11358 39.48063 51.46124
476 1 0 22.55119 40.89874 51.04743
477 1 0 23.99556 41.14648 50.57142
478 1 0 24.97414 39.96707 50.42855
479 1 0 24.53716 38.55193 50.84194
480 1 0 24.50181 42.5806 50.33468
481 3 0 22.73752 36.95039 51.90306
482 1 0 23.77753 43.34661 49.20993
483 1 0 22.24163 43.45821 49.20998
484 1 0 21.53588 44.36295 48.17911
485 1 0 22.3668 45.14209 47.13956
486 1 0 23.89314 44.95663 47.08428
487 1 0 24.5972 44.05028 48.11121
488 3 0 21.70445 46.15045 46.23013
489 1 0 24.0274 36.21344 52.18082
490 1 0 23.76177 34.798 52.72977
491 1 0 23.9939 34.50991 54.22384
492 1 0 22.67493 47.29322 46.03492
493 1 0 21.99644 48.44577 45.27255
494 1 0 22.9524 49.3989 44.53554
495 3 0 25.04701 34.16002 53.19237
496 3 0 22.06254 48.43096 43.77287
497 2 0 25.61438 42.53395 50.09224
498 2 0 24.64 36.80053 52.94199
499 2 0 23.62424 33.53345 54.68146
500 2 0 23.58523 46.92542 45.45518
501 2 0 21.05317 39.29689 51.83722
502 2 0 21.81546 41.76717 51.11622
503 2 0 26.03252 40.14808 50.04553
504 2 0 25.27029 37.68204 50.76295
505 2 0 24.36723 43.16372 51.30472
506 2 0 21.62963 42.89458 49.98969
507 2 0 20.40146 44.47485 48.20187
508 2 0 24.50561 45.51048 46.29789
509 2 0 25.72983 43.92487 48.07696
510 2 0 24.6165 36.13355 51.20774
511 2 0 23.1545 34.05254 52.11728
512 2 0 24.42961 35.31745 54.90031
513 2 0 23.0099 47.67505 47.05557
514 2 0 21.08298 48.96246 45.71716
515 2 0 24.01314 49.07744 44.26926
516 2 0 22.60648 50.43113 44.19844
517 1 0 56.90497 41.53009 -0.03778
518 1 0 55.61062 41.739 0.77035
519 1 0 55.61621 42.66237 2.0037
520 1 0 56.91959 43.36627 2.42785
521 1 0 58.19132 43.21548 1.57403
522 1 0 58.18547 42.2936 0.34334
523 1 0 56.98996 44.13844 3.75745
524 3 0 56.94048 40.53868 -1.17318
525 1 0 56.05434 45.36025 3.84812
526 1 0 54.55094 45.21154 3.54961
527 1 0 53.59532 46.3955 3.80329
528 1 0 54.14768 47.73154 4.34001
529 1 0 55.66191 47.90531 4.54991
530 1 0 56.61628 46.72426 4.29293
531 3 0 53.20649 48.84301 4.7417
532 1 0 58.39253 40.18491 -1.39779
533 1 0 58.55368 39.15744 -2.5352
534 1 0 58.88867 37.69488 -2.19193
535 1 0 53.80573 49.53339 5.94592
536 1 0 52.81086 50.55512 6.52576
537 1 0 53.43941 51.68386 7.36025
538 3 0 59.97674 38.66467 -2.60548
539 3 0 52.84804 51.95568 5.98663
540 2 0 58.06431 44.48374 3.91651
541 2 0 58.82708 39.75065 -0.43763
542 2 0 58.82285 36.88984 -2.99636
543 2 0 54.77125 50.05871 5.64285
544 2 0 54.65479 41.19688 0.46689
545 2 0 54.66453 42.80549 2.61526
546 2 0 59.14584 43.76298 1.87196
547 2 0 59.13488 42.15917 -0.27389
548 2 0 56.71401 43.41729 4.59586
549 2 0 54.14146 44.21791 3.16855
550 2 0 52.47694 46.27456 3.61742
551 2 0 56.07449 48.90188 4.91993
552 2 0 57.73658 46.85109 4.46207
553 2 0 58.96005 41.1361 -1.66883
554 2 0 58.17251 39.39969 -3.58193
555 2 0 59.08903 37.39335 -1.11095
556 2 0 54.03821 48.75341 6.74424
557 2 0 51.79703 50.20621 6.91238
558 2 0 54.54215 51.95119 7.2512
559 2 0 52.80616 52.3086 8.07262
560 1 0 31.74776 47.58601 37.68354
561 1 0 31.69116 46.07176 37.95905
562 1 0 32.93347 45.34438 38.50802
563 1 0 34.22994 46.13441 38.77106
564 1 0 34.25917 47.65972 38.567
565 1 0 33.01922 48.3853 38.0188
566 1 0 35.52985 45.39674 39.13865
567 3 0 30.57913 48.28498 37.03619
568 1 0 35.4824 44.6244 40.47193
569 1 0 34.35539 43.61059 40.74297
570 1 0 34.40606 42.7224 42.00308
571 1 0 35.57589 42.86113 42.99829
572 1 0 36.65107 43.93798 42.77127
573 1 0 36.5982 44.82725 41.51503
574 3 0 35.72118 41.89283 44.14887
575 1 0 31.1138 49.5662 36.43898
576 1 0 30.00266 50.36531 35.73035
577 1 0 29.95335 50.39221 34.19217
578 1 0 37.19911 41.64928 44.35442
579 1 0 37.41715 40.52813 45.38659
580 1 0 38.7832 40.54183 46.09317
581 3 0 30.58947 51.52676 34.96906
582 3 0 37.50948 40.91437 46.83432
583 2 0 36.37572 46.15913 39.18372
584 2 0 31.93316 49.3176 35.68653
585 2 0 29.03892 50.81317 33.65725
586 2 0 37.69766 42.6103 44.71211
587 2 0 30.73729 45.48724 37.73982
588 2 0 32.90134 44.22023 38.69625
589 2 0 35.20999 48.24667 38.793
590 2 0 33.04876 49.51128 37.8407
591 2 0 35.75751 44.65284 38.30563
592 2 0 33.49972 43.49744 39.99786
593 2 0 33.59134 41.94598 42.18567
594 2 0 37.50121 44.06038 43.5213
595 2 0 37.40347 45.61549 41.34185
596 2 0 31.55536 50.20074 37.27723
597 2 0 29.08338 50.70502 36.31271
598 2 0 30.77567 49.88703 33.5854
599 2 0 37.66501 41.33185 43.36351
600 2 0 37.01385 39.48154 45.18398
601 2 0 39.41749 41.48833 46.12775
602 2 0 39.17088 39.61873 46.63757
603 1 0 44.45735 21.69059 46.28283
604 1 0 43.57562 22.14418 45.10434
605 1 0 42.59532 23.31874 45.28659
606 1 0 42.49577 24.029 46.65033
607 1 0 43.43239 23.62293 47.80224
608 1 0 44.41042 22.45044 47.62011
609 1 0 41.39525 25.07454 46.90481
610 3 0 45.3321 20.46955 46.15171
611 1 0 41.47999 26.33386 46.01975
612 1 0 41.56223 26.20271 44.4876
613 1 0 41.47845 27.4628 43.6019
614 1 0 41.32867 28.8536 44.25105
615 1 0 41.33908 28.98871 45.78363
616 1 0 41.42658 27.73079 46.66776
617 3 0 41.08688 30.07555 43.39609
618 1 0 45.63468 19.99729 47.55508
619 1 0 46.51752 18.734 47.5474
620 1 0 45.88935 17.36975 47.88409
621 1 0 40.14945 30.98509 44.15754
622 1 0 39.70875 32.16248 43.26903
623 1 0 39.23242 33.4142 44.02523
624 3 0 46.63578 18.16259 48.9375
625 3 0 40.55471 33.40261 43.27567
626 2 0 41.44363 25.3887 47.99921
627 2 0 44.65692 19.76656 48.09367
628 2 0 46.4752 16.40966 47.69827
629 2 0 40.67331 31.37673 45.09147
630 2 0 43.63535 21.59979 44.10451
631 2 0 41.92781 23.64595 44.42198
632 2 0 43.37907 24.17139 48.80023
633 2 0 45.08514 22.13054 48.482
634 2 0 40.3881 24.57538 46.71607
635 2 0 41.65626 25.17233 44.00837
636 2 0 41.50227 27.36331 42.46634
637 2 0 41.25675 30.01931 46.26465
638 2 0 41.42049 27.83215 47.80331
639 2 0 46.17943 20.83181 48.10928
640 2 0 47.54114 18.75562 47.04605
641 2 0 44.79833 17.30779 48.20878
642 2 0 39.22586 30.3925 44.46664
643 2 0 39.13896 31.96382 42.30211
644 2 0 39.5254 33.59091 45.11257
645 2 0 38.61419 34.21562 43.5015
646 1 0 13.81476 12.57194 24.19995
647 1 0 13.48538 11.91777 22.8451
648 1 0 12.07579 11.35107 22.58873
649 1 0 11.0042 11.43413 23.69279
650 1 0 11.314 12.15619 25.01631
651 1 0 12.721 12.72139 25.27197
652 1 0 9.65621 10.71037 23.52507
653 3 0 15.22108 13.02217 24.50468
654 1 0 8.7895 11.2166 22.35505
655 1 0 9.37696 11.30491 20.9343
656 1 0 8.46055 11.65153 19.74293
657 1 0 6.96102 11.92502 19.977
658 1 0 6.39686 11.92582 21.40839
659 1 0 7.31285 11.58346 22.59814
660 3 0 6.02434 12.1087 18.8059
661 1 0 15.33327 13.11347 26.00905
662 1 0 16.74471 13.55394 26.44405
663 1 0 17.70731 12.51762 27.05117
664 1 0 4.70103 11.47984 19.17901
665 1 0 3.75661 11.46195 17.96342
666 1 0 2.25753 11.37829 18.29696
667 3 0 16.8973 13.43964 27.93954
668 3 0 2.87125 12.65428 17.74411
669 2 0 9.06688 10.81825 24.49451
670 2 0 15.10212 12.09522 26.46629
671 2 0 18.80729 12.7777 27.19924
672 2 0 4.22637 12.06855 20.03233
673 2 0 14.28871 11.83686 22.0403
674 2 0 11.8332 10.84983 21.59369
675 2 0 10.50936 12.24453 25.81905
676 2 0 12.95983 13.23186 26.26334
677 2 0 9.87188 9.60429 23.35417
678 2 0 10.48246 11.08619 20.76045
679 2 0 8.8872 11.68104 18.68603
680 2 0 5.29407 12.15566 21.58532
681 2 0 6.88967 11.57136 23.65669
682 2 0 14.57105 13.87406 26.38431
683 2 0 17.16906 14.54867 26.08343
684 2 0 17.35122 11.45221 27.24529
685 2 0 4.88201 10.40689 19.51925
686 2 0 4.05152 10.89146 17.0218
687 2 0 1.86694 11.67523 19.32587
688 2 0 1.4983 11.06147 17.5083
689 1 0 21.22848 26.49186 20.18539
690 1 0 22.74766 26.26791 20.06713
691 1 0 23.49782 26.74211 18.80768
692 1 0 22.72261 27.43111 17.66816
693 1 0 21.21901 27.7214 17.82291
694 1 0 20.47058 27.24772 19.07987
695 1 0 23.4176 27.74066 16.33017
696 3 0 20.46597 25.92761 21.35735
697 1 0 24.58584 28.7422 16.42268
698 1 0 25.73125 28.50954 17.42534
699 1 0 26.97537 29.42098 17.39732
700 1 0 27.06448 30.57374 16.37685
701 1 0 25.87901 30.8596 15.43871
702 1 0 24.63535 29.9518 15.46947
703 3 0 28.33927 31.37163 16.23249
704 1 0 19.01638 25.8489 20.93719
705 1 0 18.13433 25.26716 22.05921
706 1 0 17.60847 23.82567 21.93789
707 1 0 28.5002 31.71063 14.7679
708 1 0 29.87313 32.36061 14.51787
709 1 0 29.96701 33.23311 13.25477
710 3 0 16.73868 25.00496 21.55299
711 3 0 29.97696 33.85302 14.64259
712 2 0 22.63813 28.14878 15.60586
713 2 0 18.92787 25.18879 20.01211
714 2 0 17.12092 23.31812 22.83467
715 2 0 27.6685 32.42179 14.44764
716 2 0 23.31264 25.73588 20.90219
717 2 0 24.61937 26.56207 18.70832
718 2 0 20.65425 28.26009 16.99195
719 2 0 19.35087 27.43746 19.18318
720 2 0 23.82251 26.76097 15.91138
721 2 0 25.67141 27.6466 18.16825
722 2 0 27.83993 29.22666 18.11475
723 2 0 25.93228 31.72922 14.70305
724 2 0 23.76363 30.15723 14.76401
725 2 0 18.65463 26.90001 20.68301
726 2 0 18.09051 25.78123 23.07579
727 2 0 17.80873 23.22234 20.9916
728 2 0 28.43051 30.75216 14.15454
729 2 0 30.82746 31.78243 14.75029
730 2 0 29.03041 33.65715 12.76247
731 2 0 30.97802 33.51315 12.80956
732 1 0 21.96832 13.05253 15.80103
733 1 0 22.16811 14.15234 14.74152
734 1 0 23.22146 15.25379 14.96754
735 1 0 24.06468 15.25441 16.25717
736 1 0 23.91564 14.11157 17.27734
737 1 0 22.86406 13.01263 17.05161
738 1 0 24.98386 16.44453 16.58546
739 3 0 20.86161 12.04031 15.64648
740 1 0 26.13408 16.67101 15.5844
741 1 0 25.83995 16.79488 14.07789
742 1 0 26.96939 17.18654 13.10307
743 1 0 28.39492 17.43798 13.63487
744 1 0 28.70479 17.22394 15.12662
745 1 0 27.57777 16.82917 16.0991
746 3 0 29.4702 17.97438 12.7191
747 1 0 20.59546 11.472 17.02134
748 1 0 19.46227 10.42781 16.99075
749 1 0 18.07676 10.79812 17.54965
750 1 0 30.33419 18.91149 13.53222
751 1 0 31.33642 19.6411 12.61947
752 1 0 32.59561 20.17667 13.32169
753 3 0 19.07347 10.02767 18.39131
754 3 0 32.66666 18.9898 12.37473
755 2 0 25.42483 16.28279 17.6238
756 2 0 20.30537 12.3176 17.72854
757 2 0 17.18412 10.11406 17.36314
758 2 0 30.89362 18.31881 14.32959
759 2 0 21.52491 14.16146 13.80035
760 2 0 23.35992 16.08005 14.19404
761 2 0 24.56346 14.09702 18.21529
762 2 0 22.7334 12.18075 17.82059
763 2 0 24.34231 17.38635 16.60773
764 2 0 24.78188 16.62492 13.68827
765 2 0 26.74441 17.31436 11.99267
766 2 0 29.76476 17.3822 15.5161
767 2 0 27.80685 16.68427 17.20648
768 2 0 21.55042 10.97767 17.40079
769 2 0 19.55644 9.50192 16.33236
770 2 0 17.91405 11.80993 18.04898
771 2 0 29.6682 19.68562 14.03909
772 2 0 30.9575 20.31122 11.77898
773 2 0 32.93146 19.75683 14.32684
774 2 0 33.24659 20.97303 12.83094
775 1 0 40.11526 49.67794 50.88059
776 1 0 40.60307 50.55055 49.70898
777 1 0 39.62212 50.95304 48.59115
778 1 0 38.15891 50.47336 48.64652
779 1 0 37.65659 49.66606 49.85689
780 1 0 38.63594 49.26426 50.97219
781 1 0 37.21772 50.70637 47.45114
782 3 0 41.09201 49.18025 51.91575
783 1 0 36.93937 52.18685 47.12386
784 1 0 38.10673 53.16875 46.91272
785 1 0 37.82575 54.60423 46.42305
786 1 0 36.37607 55.06008 46.16077
787 1 0 35.20698 54.10582 46.46039
788 1 0 35.48756 52.6739 46.95293
789 3 0 36.09843 56.40562 45.53228
790 1 0 40.45141 47.98322 52.57967
791 1 0 41.37204 47.3747 53.65555
792 1 0 42.10099 46.05019 53.36666
793 1 0 34.90192 56.24429 44.62223
794 1 0 34.67659 57.52839 43.80357
795 1 0 33.24638 57.72787 43.27421
796 3 0 40.80875 46.06941 54.15734
797 3 0 33.7992 58.59345 44.39473
798 2 0 36.22807 50.18337 47.66518
799 2 0 40.22445 47.19202 51.79112
800 2 0 42.92538 45.68765 54.06558
801 2 0 33.97643 56.01314 45.24678
802 2 0 41.69252 50.88261 49.65991
803 2 0 39.98368 51.58384 47.71277
804 2 0 36.56561 49.33976 49.91102
805 2 0 38.27118 48.64224 51.85563
806 2 0 37.6911 50.22316 46.53378
807 2 0 39.17928 52.82526 47.0911
808 2 0 38.69202 55.32029 46.23127
809 2 0 34.13319 54.45143 46.2936
810 2 0 34.62023 51.96394 47.16143
811 2 0 39.47582 48.31715 53.06652
812 2 0 41.72293 48.01148 54.53362
813 2 0 41.90155 45.4886 52.39485
814 2 0 35.09478 55.38007 43.90413
815 2 0 35.4867 57.90011 43.09322
816 2 0 32.36348 57.18341 43.74692
817 2 0 33.03147 58.45968 42.42742
818 1 0 39.92838 17.527 22.07227
819 1 0 38.49925 17.85095 22.54628
820 1 0 37.72449 19.01897 21.90652
821 1 0 38.38676 19.86312 20.80064
822 1 0 39.78483 19.48887 20.27683
823 1 0 40.55792 18.32329 20.91576
824 1 0 37.70465 21.14272 20.28452
825 3 0 40.73849 16.46466 22.77116
826 1 0 36.34647 20.91885 19.59052
827 1 0 35.23184 20.12858 20.30079
828 1 0 33.82446 20.05112 19.67421
829 1 0 33.53874 20.75095 18.33005
830 1 0 34.6781 21.46166 17.57911
831 1 0 36.08413 21.53561 18.20308
832 3 0 32.13108 20.81723 17.78538
833 1 0 42.18938 16.74231 22.45193
834 1 0 43.12219 15.72036 23.13078
835 1 0 43.94882 16.14801 24.35673
836 1 0 31.9697 22.15723 17.10406
837 1 0 30.50278 22.37246 16.68967
838 1 0 30.28353 23.37705 15.54589
839 3 0 44.56363 16.13261 22.9721
840 3 0 30.07695 21.88601 15.33481
841 2 0 38.41178 21.65783 19.55419
842 2 0 42.45971 17.79026 22.80977
843 2 0 44.4913 15.36395 24.98163
844 2 0 32.64431 22.20171 16.18592
845 2 0 38.02275 17.23888 23.38168
846 2 0 36.67311 19.27345 22.26712
847 2 0 40.25951 20.09533 19.43628
848 2 0 41.60524 18.06275 20.54743
849 2 0 37.53821 21.83409 21.17527
850 2 0 35.44 19.62558 21.30271
851 2 0 32.98895 19.49723 20.21743
852 2 0 34.47458 21.95532 16.57156
853 2 0 36.92369 22.07444 17.6512
854 2 0 42.32972 16.68485 21.32176
855 2 0 43.00794 14.60785 22.90965
856 2 0 43.92622 17.23124 24.71125
857 2 0 32.27091 22.98249 17.83066
858 2 0 29.68419 22.39132 17.48253
859 2 0 31.12981 23.64899 14.83227
860 2 0 29.25785 23.83695 15.35816
861 1 0 32.79956 30.55763 48.34385
862 1 0 33.05422 31.98156 47.81505
863 1 0 33.91111 32.18945 46.55159
864 1 0 34.51645 30.97149 45.82749
865 1 0 34.19685 29.54676 46.31436
866 1 0 33.34187 29.33965 47.57555
867 1 0 35.52375 31.16934 44.68065
868 3 0 32.06359 30.34971 49.64325