LAMMPS (09 Jan 2020)
package omp 0
WARNING: OpenMP support not enabled during compilation; using 1 thread only. (../fix_omp.cpp:125)
units			real
atom_style		charge
read_data d1000000_lmps.dat
  orthogonal box = (-15 -15 -15) to (50 50 50)
  1 by 1 by 1 MPI processor grid
  reading atoms ...
  936 atoms
  read_data CPU = 0.000530958 secs
reset_timestep		0

pair_style              reax/c lmp_control lgvdw yes
pair_coeff              * * ffield C H O N

neighbor		2.5 bin
neigh_modify		delay 0 every 5 check no

fix			qeq all qeq/reax 1 0.0 10.0 1e-6 reax/c
fix			bonds all reax/c/bonds 500 bonds.reaxc
fix			npt all npt temp 300 300 100 iso 1.0 1.0 2000
fix 1 all reax/c/species 10 10 100 species.out cutoff 1 4 0.25
WARNING: Resetting reneighboring criteria for fix reax/c/species (../fix_reaxc_species.cpp:97)


thermo			100
thermo_style            custom step temp pe etotal press vol density
thermo_modify           flush yes

timestep		0.25

dump			1 all custom 1000 dump/dump.reax.npt.* id type xu yu zu
restart			500 restart.npt300 restart.npt300
run 1000000
Last active /omp style is pair_style reax/c/omp
Neighbor list info ...
  update every 100 steps, delay 0 steps, check no
  max neighbors/atom: 2000, page size: 100000
  master list distance cutoff = 12.5
  ghost atom cutoff = 12.5
  binsize = 6.25, bins = 11 11 11
  2 neighbor lists, perpetual/occasional/extra = 2 0 0
  (1) pair reax/c/omp, perpetual
      attributes: half, newton off, ghost, omp
      pair build: half/bin/newtoff/ghost/omp
      stencil: half/ghost/bin/3d/newtoff
      bin: standard
  (2) fix qeq/reax/omp, perpetual, copy from (1)
      attributes: half, newton off, ghost
      pair build: copy
      stencil: none
      bin: none
Per MPI rank memory allocation (min/avg/max) = 53.92 | 53.92 | 53.92 Mbytes
Step Temp PotEng TotEng Press Volume Density 
       0            0   -111557.93   -111557.93   -50.102939       274625  0.038816842 
     100    150.23948   -111962.61   -111543.89    331.57678    274629.18  0.038816252 
     200    171.50913   -112000.03   -111522.03   -45.342099     274658.1  0.038812164 
     300    169.54223   -111971.46   -111498.94   -262.39789    274662.47  0.038811546 
     400    174.03466   -111955.47   -111470.42   -100.45567    274655.05  0.038812596 
     500    184.62811   -111953.36   -111438.79    74.443133    274648.72   0.03881349 
     600    191.45727   -111939.15   -111405.55   -144.63519    274652.94  0.038812893 
     700    191.11759   -111902.31   -111369.66    223.57978    274648.65    0.0388135 
     800    199.83033   -111889.89   -111332.95    289.46628    274655.57  0.038812522 
     900    208.83814   -111876.39   -111294.35   -194.74583    274674.76   0.03880981 
    1000    208.92685   -111838.51   -111256.21    111.28636    274705.66  0.038805445 
    1100    212.01884   -111806.58   -111215.67    55.283195    274750.34  0.038799135 
    1200    219.48982   -111787.46   -111175.73    49.779129    274779.91  0.038794959 
    1300    239.04597   -111799.42   -111133.18   -130.82818    274799.32  0.038792219 
    1400     245.8222   -111777.43   -111092.31   -25.375277    274849.23  0.038785175 
    1500    255.48085    -111762.7   -111050.66   -103.12259    274939.62  0.038772423 
    1600    259.95084   -111734.28   -111009.78    168.05708    275024.09  0.038760514 
    1700    265.07718   -111706.76   -110967.98   -118.26322     275139.5  0.038744256 
    1800    257.89304   -111646.72   -110927.96    138.86308    275217.21  0.038733317 
    1900    276.10812   -111658.15   -110888.62    34.626126    275240.67  0.038730015 
    2000    283.95901    -111642.3   -110850.89   -86.861099    275241.19  0.038729942 
    2100    290.73981    -111626.1   -110815.79     14.32474    275224.49  0.038732293 
    2200    293.71657   -111602.13   -110783.52    254.35515    275223.17  0.038732478 
    2300    315.02594   -111631.48   -110753.48    127.16095    275249.35  0.038728794 
    2400    304.07436   -111574.48   -110727.01   -195.03943    275293.21  0.038722624 
    2500    311.69891   -111574.47   -110705.75    330.62608    275288.27  0.038723319 
    2600    311.79411   -111557.79    -110688.8   -92.134228    275208.53  0.038734539 
    2700    322.45366   -111576.49   -110677.79    44.498675    275073.02  0.038753621 
    2800    315.99738   -111553.72   -110673.02   -23.494934    274926.18  0.038774318 
    2900     302.8713   -111520.43   -110676.31   -99.246445    274770.04  0.038796353 
    3000    311.33949   -111549.97   -110682.25    188.82126    274635.04  0.038815424 
    3100     297.1072   -111519.28   -110691.23   -256.90059    274500.46  0.038834454 
    3200    316.82173    -111586.7    -110703.7    565.07946     274379.1   0.03885163 
    3300    309.83468   -111581.68   -110718.15   -117.20369    274304.74  0.038862163 
    3400    309.42905   -111596.74   -110734.34   -209.47513    274238.84  0.038871501 
    3500    296.99076   -111578.67   -110750.94   -292.91225     274179.3  0.038879943 
    3600    301.50459   -111605.11    -110764.8   -1.3734416    274077.31  0.038894411 
    3700    297.30296   -111607.36   -110778.76   -230.36926    273964.31  0.038910453 
    3800    287.62463   -111589.34   -110787.71    36.076444    273871.38  0.038923656 
    3900    274.42791   -111560.86   -110796.01   -165.04257    273788.48  0.038935441 
    4000    273.44556   -111562.06   -110799.96    129.23639     273675.9  0.038951458 
    4100    289.61495    -111604.1   -110796.93    233.95597    273564.26  0.038967354 
    4200    287.30679   -111590.36   -110789.61   -188.97655    273482.11   0.03897906 
    4300    296.77028   -111606.17   -110779.05    22.308893    273452.01   0.03898335 
    4400    298.11271   -111596.53   -110765.68   -244.81672    273482.74  0.038978969 
    4500    294.75623   -111574.81   -110753.31    119.20101    273508.55  0.038975291 
    4600    303.33945   -111585.76   -110740.34   -280.54826    273539.97  0.038970814 
    4700    309.43551   -111588.82    -110726.4    16.767944    273492.17  0.038977626 
    4800      309.581   -111578.94   -110716.12   -203.52382    273438.23  0.038985315 
    4900    295.96117   -111533.19   -110708.33    4.8357611    273414.81  0.038988654 
    5000     295.6887   -111527.09   -110702.99   -125.11667    273429.12  0.038986614 
    5100    314.89186    -111577.3   -110699.67   -274.52101    273467.48  0.038981144 
    5200    327.18618   -111612.26   -110700.37    440.16944    273508.22  0.038975339 
    5300    303.20869   -111548.85   -110703.79    54.722545    273596.13  0.038962814 
    5400    297.39571   -111537.82   -110708.96   -338.40032    273651.73  0.038954898 
    5500    297.81599   -111546.22   -110716.19   -166.80903    273626.26  0.038958525 
    5600    311.71353   -111593.46    -110724.7   -172.50836    273558.61  0.038968159 
    5700    311.79604    -111603.6    -110734.6   -118.81979    273433.52  0.038985986 
    5800    295.92856   -111570.68   -110745.91    22.982465    273276.17  0.039008433 
    5900    304.24384   -111603.09   -110755.14   -146.27312    273082.08  0.039036159 
    6000    293.19742   -111581.46    -110764.3    239.96201    272869.28  0.039066602 
    6100     304.4089   -111619.91    -110771.5    -44.76359    272654.39  0.039097391 
    6200    289.18529   -111582.25   -110776.27   -188.75443    272450.37  0.039126669 
    6300    295.42198   -111602.48   -110779.12    -235.8504    272247.59  0.039155811 
    6400    296.08518   -111604.89   -110779.68    169.84386    272009.22  0.039190125 
    6500    299.05779   -111610.94   -110777.45    44.569377    271773.92  0.039224055 
    6600    292.90942   -111589.45    -110773.1   -169.71288    271572.08  0.039253207 
    6700    290.69163   -111576.04   -110765.87    95.937929    271373.85  0.039281882 
    6800    306.02925   -111610.15   -110757.23    46.942389    271208.11  0.039305887 
    6900     311.4808   -111615.59   -110747.47   -297.08266    271044.15  0.039329664 
    7000    304.87231   -111588.74   -110739.05    51.067082    270883.14  0.039353042 
    7100    293.00569   -111547.34   -110730.72   -42.911812    270744.39  0.039373208 
    7200    309.78008   -111587.09   -110723.71   -43.515531    270545.71  0.039402124 
    7300    307.52465   -111576.01   -110718.92    39.604095    270273.66  0.039441784 
    7400    301.47562   -111556.39   -110716.16    244.35475    269944.11  0.039489935 
    7500    306.48611   -111568.62   -110714.42    108.07374    269641.92  0.039534191 
    7600     302.6174   -111557.19   -110713.77    238.00181    269329.84  0.039580001 
    7700     303.4687   -111559.43   -110713.64    215.43818    269006.39  0.039627592 
    7800     315.4941   -111593.47   -110714.17    363.99631    268677.46  0.039676106 
    7900    299.04804   -111551.81   -110718.35   -194.48224    268410.55   0.03971556 
    8000    297.83532   -111556.22   -110726.14   -228.73005    268166.97  0.039751634 
    8100    305.77873   -111586.12   -110733.89    11.640159    267900.66   0.03979115 
    8200    300.33766      -111580   -110742.94   -21.000517    267659.65  0.039826979 
    8300    301.70122   -111592.64   -110751.78    52.875497    267480.47  0.039853658 
    8400    293.70493   -111580.06   -110761.49    110.53594     267318.1  0.039877866 
    8500    282.24162   -111556.03    -110769.4   -125.31148    267177.22  0.039898893 
    8600    301.16553   -111615.33   -110775.97   -76.096929    267078.17   0.03991369 
    8700    305.86488   -111633.39   -110780.92   -225.07164    266955.75  0.039931993 
    8800    296.36422    -111610.4   -110784.42   -97.300537    266818.47  0.039952539 
    8900    297.67145    -111616.9   -110787.27     217.1206    266733.67  0.039965241 
    9000    293.59882   -111607.22   -110788.94   -138.22192    266695.23  0.039971001 
    9100    298.00042   -111619.65   -110789.11   -73.105728    266674.97  0.039974037 
    9200     293.0406   -111603.05   -110786.33   -210.69488    266627.39  0.039981172 
    9300    294.96918   -111604.23   -110782.13     62.19225    266506.84  0.039999256 
    9400    297.82339    -111604.5   -110774.45    -131.1715    266343.66  0.040023762 
    9500    279.16343   -111545.02   -110766.97   -25.908635    266184.52   0.04004769 
    9600     290.0928   -111565.91   -110757.41   -146.38409    266057.21  0.040066854 
    9700    290.37821   -111555.66   -110746.36   -250.23552    265930.83  0.040085895 
    9800    306.75429   -111589.53   -110734.58   -215.84831    265801.67  0.040105374 
    9900    292.15565    -111537.9   -110723.65   -63.742489    265678.08  0.040124031 
   10000    302.87832   -111556.98   -110712.84   -25.375192    265558.07  0.040142162 
   10100    302.94757   -111547.72   -110703.38      11.8708    265442.57   0.04015963 
   10200    308.38037   -111553.96   -110694.48   -154.83607     265331.9   0.04017638 
   10300    312.78943   -111559.36    -110687.6   -71.154756    265186.56  0.040198399 
   10400    311.04705   -111549.95   -110683.04    125.88231    265020.09   0.04022365 
   10500    305.56653   -111534.12   -110682.49  -0.13226027    264855.27  0.040248681 
   10600    297.38184   -111514.21   -110685.39     37.88727     264715.5  0.040269932 
   10700    301.53937   -111531.26   -110690.85   -45.516656    264558.66  0.040293807 
   10800    311.35258   -111567.06    -110699.3       80.124    264354.01  0.040324999 
   10900    301.16047   -111548.42   -110709.07    381.02582    264117.81  0.040361062 
   11000    294.72327   -111542.03   -110720.61   -176.14317    263901.28  0.040394179 
   11100    289.90748   -111538.85   -110730.86   -311.65051    263705.04  0.040424238 
   11200    289.23501   -111546.59   -110740.47   -5.6361219    263518.17  0.040452904 
   11300    309.44442   -111611.09   -110748.65   -475.19596    263330.89  0.040481675 
   11400    292.83943   -111572.22   -110756.06   -245.55839    263085.97   0.04051936 
   11500    293.31729   -111579.38   -110761.89   -266.27918    262790.12  0.040564978 
   11600    300.25189   -111601.27   -110764.45    110.78217    262505.42  0.040608973 
   11700    296.88622   -111592.27   -110764.83   -2.8373976    262249.42  0.040648613 
   11800    291.59162    -111573.5   -110760.82   -227.24177    262006.51  0.040686299 
   11900    290.31916   -111563.37   -110754.23   -87.101243     261738.3  0.040727992 
   12000    304.13155   -111594.43    -110746.8    15.828666    261486.54  0.040767205 
   12100    293.70251   -111557.36   -110738.79   -156.01955    261243.17  0.040805183 
   12200    294.36367   -111551.39   -110730.98   -102.85617    260984.23  0.040845668 
   12300    301.69741   -111562.13   -110721.28   -100.64773    260714.48   0.04088793 
   12400    302.08046    -111554.2   -110712.28    583.87329    260419.51  0.040934242 
   12500    303.27753   -111550.35    -110705.1   -47.261886    260168.67  0.040973709 
   12600    299.89186   -111535.32    -110699.5   -270.34037    259905.74  0.041015159 
   12700    308.11297   -111553.88   -110695.15   -228.69737    259623.92  0.041059681 
   12800    312.91094   -111564.71   -110692.61    131.60554    259321.59   0.04110755 
   12900    306.52867   -111545.74   -110691.43   -72.263153    259021.39  0.041155193 
   13000    320.90843   -111587.15   -110692.76   -352.79859    258728.09  0.041201847 
   13100    321.88303   -111596.46   -110699.36   -256.42013    258473.04  0.041242504 
   13200    305.08545   -111564.69    -110714.4   -115.32657    258207.86  0.041284861 
   13300    305.28406   -111585.06   -110734.22    86.159042    257894.23  0.041335068 
   13400    298.41286   -111585.22   -110753.52   -420.39819    257531.97  0.041393212 
   13500    294.64713   -111586.88   -110765.68    295.66243    257119.16   0.04145967 
   13600    290.23567   -111581.94   -110773.04    91.831396    256731.55  0.041522264 
   13700    290.66488   -111586.07   -110775.97   -132.40976    256379.76  0.041579239 
   13800     297.4301   -111606.41   -110777.45   -317.11342    256059.08  0.041631312 
   13900      285.977   -111572.73    -110775.7    256.63542    255727.64  0.041685268 
   14000       299.43   -111605.98   -110771.45   -9.8551202    255392.05  0.041740044 
   14100    302.38466   -111608.71   -110765.94   -350.10508    255037.91  0.041798003 
   14200    295.49685   -111582.08   -110758.52    311.95773    254632.66  0.041864524 
   14300    305.83798   -111603.52   -110751.13    159.24493    254227.06  0.041931317 
   14400    299.64768   -111578.44    -110743.3    133.32293    253833.76  0.041996286 
   14500    301.98705   -111577.76   -110736.11    -255.9095    253416.23   0.04206548 
   14600    301.18373   -111569.95   -110730.54   -260.35617     252952.7  0.042142564 
   14700    306.02998      -111578   -110725.08    3.8643933    252446.07  0.042227139 
   14800    308.95851   -111581.05   -110719.97   -139.42444    251941.15  0.042311767 
   14900    302.24805   -111557.28   -110714.89   -16.831395    251477.23  0.042389823 
   15000    301.57101   -111551.59    -110711.1    26.906951    251046.65  0.042462528 
   15100    301.32445   -111546.98   -110707.17   -58.101892    250604.33  0.042537475 
   15200    310.11949   -111567.89   -110703.56    81.367116    250183.32  0.042609058 
   15300    313.72237   -111578.93   -110704.56   -123.07413    249797.35  0.042674894 
   15400    314.32303   -111586.65   -110710.61    189.39069    249419.36  0.042739567 
   15500    316.76766   -111603.31   -110720.46    161.65909    249046.23  0.042803601 
   15600    316.09759   -111614.62   -110733.64   -427.14709    248666.44  0.042868974 
   15700    294.58719   -111570.85   -110749.82   -309.20102    248253.49  0.042940284 
   15800    294.54977   -111584.39   -110763.46    17.453641    247789.78  0.043020642 
   15900    290.33406   -111582.21   -110773.03   -5.4646776    247323.19  0.043101803 
   16000    296.11545      -111604   -110778.71   -248.73456    246882.37  0.043178763 
   16100    288.21662   -111585.37   -110782.09   -132.26427    246463.59  0.043252131 
   16200    295.74522   -111607.54   -110783.28   -452.22747    246028.43  0.043328632 
   16300     287.3609   -111581.17   -110780.28    111.81205    245545.24  0.043413895 
   16400     297.9327   -111602.69   -110772.33   -153.97703    245038.18  0.043503732 
   16500    292.41642   -111577.75   -110762.77   -178.67185    244554.44  0.043589785 
   16600    301.33489   -111591.04    -110751.2   -204.50216     244106.3  0.043669808 
   16700    304.45631   -111588.85   -110740.31    190.73554    243627.74   0.04375559 
   16800     305.9645   -111584.94    -110732.2   -39.831285    243150.88  0.043841401 
   16900    296.29295   -111550.83   -110725.05   -76.053806    242660.23  0.043930048 
   17000    306.73388   -111572.89   -110718.01    347.09854    242181.75   0.04401684 
   17100    304.09885   -111562.49   -110714.95    248.48428    241737.59  0.044097715 
   17200     298.6875    -111545.5   -110713.05   -55.275266    241289.76   0.04417956 
   17300    306.83764   -111569.01   -110713.83    117.70978    240833.02  0.044263347 
   17400    302.27361   -111560.54   -110718.09    483.57987    240346.66  0.044352917 
   17500    306.49617   -111576.16   -110721.94    95.120595    239891.91  0.044436994 
   17600    307.10369   -111584.46   -110728.54   -147.86012     239469.6  0.044515359 
   17700    322.57753   -111635.02   -110735.98   -95.658268    239036.08  0.044596094 
   17800    293.65839    -111562.8   -110744.35    79.440155    238576.22  0.044682053 
   17900    307.42067   -111604.58   -110747.79    366.04792    238087.72  0.044773731 
   18000     310.0902   -111614.17   -110749.93     52.21437    237600.74  0.044865498 
   18100    298.02021   -111582.36   -110751.76    -139.3808    237133.51  0.044953898 
   18200    301.78303   -111594.75   -110753.66   -188.21808    236697.99  0.045036611 
   18300     297.2465   -111582.99   -110754.54   -230.60074    236301.93  0.045112095 
   18400     296.2844    -111581.3   -110755.54    -193.7844    235927.44  0.045183703 
   18500    302.89151   -111602.29   -110758.11    109.00698    235562.66  0.045253672 
   18600    301.53027   -111600.27   -110759.89   -89.566376     235193.5  0.045324702 
   18700    302.09373   -111602.96   -110761.01     518.5467    234804.75  0.045399743 
   18800    284.27563   -111555.87   -110763.58    228.86228    234423.53  0.045473573 
   18900    292.08932   -111579.53   -110765.46   -165.26587    234089.42  0.045538476 
   19000    285.53697   -111563.71    -110767.9    61.720718    233771.94  0.045600321 
   19100    295.23842   -111592.39   -110769.55    214.45269    233446.38  0.045663914 
   19200    298.15926   -111601.72   -110770.74    308.82648    233159.96  0.045720008 
   19300    295.77539   -111596.49   -110772.14    52.130621    232922.92  0.045766537 
   19400    298.07087   -111603.59   -110772.85     91.13133    232696.86  0.045810998 
   19500    293.41585   -111589.83   -110772.07   -49.167373    232509.66  0.045847882 
   19600    301.93145   -111611.55   -110770.05    -83.23534     232331.4  0.045883059 
   19700     293.7938   -111585.53   -110766.71    88.374635    232126.75  0.045923511 
   19800    315.59155   -111639.87   -110760.29    7.3332183    231885.29   0.04597133 
   19900    289.43266   -111558.34   -110751.68   -125.88468    231637.87  0.046020434 
   20000    318.42956   -111629.49      -110742   -72.482123    231418.24   0.04606411 
   20100    308.57072   -111594.87   -110734.87   -39.851157    231217.46   0.04610411 
   20200    293.72861   -111546.44    -110727.8    314.82677    231018.03  0.046143912 
   20300    311.33053   -111589.99    -110722.3    208.12215    230810.76  0.046185349 
   20400    315.47156   -111598.31   -110719.07   -228.12002    230636.34  0.046220276 
   20500    304.26895   -111566.68   -110718.67     107.4303    230457.37   0.04625617 
   20600    311.86628   -111590.12   -110720.93   -168.22933    230249.68  0.046297893 
   20700    306.05831    -111580.4    -110727.4    100.43945    229985.32  0.046351111 
   20800    289.78759    -111543.4   -110735.74   -87.506001    229732.29  0.046402163 
   20900     313.4968   -111620.01   -110746.28   -10.178629    229498.79  0.046449375 
   21000     288.7644    -111564.4   -110759.59    132.76049    229267.09  0.046496318 
   21100    290.20126   -111580.32   -110771.51   -6.7751493    229024.97  0.046545472 
   21200    305.61568   -111633.82   -110782.05    237.59883    228777.72  0.046595776 
   21300    295.02075   -111612.03   -110789.79   -50.780803     228566.1  0.046638918 
   21400    283.88962   -111587.23   -110796.01   -9.0139239    228364.33  0.046680125 
   21500    297.05922    -111628.8   -110800.88   -294.85319    228152.98  0.046723366 
   21600     300.8002   -111640.54    -110802.2   -69.705726    227909.79  0.046773222 
   21700    291.50815   -111614.92   -110802.47   -137.04848    227643.84  0.046827867 
   21800    289.67795    -111607.4   -110800.05    125.75115    227355.18  0.046887321 
   21900    283.62156   -111581.18   -110790.71    51.323146    227070.55  0.046946094 
   22000    295.05281   -111594.91   -110772.58   -101.20192    226772.93  0.047007706 
   22100    300.36712   -111584.02   -110746.88   -60.489921    226478.21  0.047068878 
   22200    296.69451   -111555.12   -110728.22   -38.438481    226229.17  0.047120693 
   22300    310.20142   -111581.73   -110717.18    -228.0249    226029.74  0.047162268 
   22400    306.79482   -111568.26    -110713.2   -367.32195    225863.09  0.047197066 
   22500    296.23733   -111539.43    -110713.8    23.048647    225687.85  0.047233714 
   22600     304.3185   -111562.58   -110714.42    220.63262    225540.78  0.047264514 
   22700    304.38281   -111565.16   -110716.82     206.6873    225411.51  0.047291619 
   22800    312.65941   -111595.19   -110723.79    75.357392    225312.38  0.047312426 
   22900     285.5399   -111528.19   -110732.37     140.6955    225222.25  0.047331361 
   23000    299.71588   -111576.35   -110741.02    172.56534    225132.13  0.047350306 
   23100    297.13733   -111578.05   -110749.91   -267.64382    225024.42  0.047372972 
   23200    295.83205   -111582.29   -110757.79   -110.42028    224905.82  0.047397953 
   23300    304.83578   -111614.25   -110764.65    194.76421    224790.92  0.047422179 
   23400    291.95176   -111584.79    -110771.1   -157.64795    224707.03  0.047439883 
   23500    298.30799    -111609.2    -110777.8    155.56773     224621.4  0.047457968 
   23600    291.15258    -111593.9   -110782.45   -9.6352805    224516.62  0.047480117 
   23700    293.90496   -111603.54   -110784.41    258.37284    224391.55  0.047506582 
   23800    288.44826   -111586.51   -110782.59   -169.93006    224252.25   0.04753609 
   23900    299.07443   -111609.61   -110776.07   -330.80207    224100.48  0.047568284 
   24000    294.38283   -111585.89   -110765.43     267.5545    223943.55  0.047601618 
   24100    297.69832      -111579    -110749.3    456.49056    223845.27  0.047622518 
   24200    295.23075   -111553.02   -110730.19   -320.92084    223791.62  0.047633934 
   24300    310.18522   -111578.09   -110713.58    186.00959    223740.62  0.047644793 
   24400    313.49846    -111576.5   -110702.76   -96.492691    223691.03  0.047655354 
   24500    314.34245   -111574.06   -110697.97   -44.613303     223634.6   0.04766738 
   24600    314.90994   -111574.41   -110696.73    4.6961952    223581.48  0.047678706 
   24700    302.48391   -111541.19   -110698.15    337.52742    223543.15  0.047686879 
   24800    296.17391   -111526.64   -110701.19    46.626025    223525.32  0.047690684 
   24900    309.56087   -111568.68   -110705.92   -256.79359    223541.73  0.047687183 
   25000    305.10879   -111562.31   -110711.96    81.690723    223525.45  0.047690656 
   25100      302.694   -111565.27   -110721.64    39.301856    223475.65  0.047701283 
   25200    298.64219   -111564.99   -110732.66   -404.81061    223397.93  0.047717878 
   25300    300.61636   -111581.61   -110743.78    331.69226    223304.72  0.047737797 
   25400    300.90539   -111591.77   -110753.13    215.98346    223229.24  0.047753939 
   25500    300.37537   -111597.67   -110760.51   -3.5789666    223151.11  0.047770658 
   25600    298.12378   -111595.73   -110764.85   -61.290555    223053.52  0.047791559 
   25700    297.15361   -111595.45   -110767.27   -234.33261     222959.3  0.047811755 
   25800    295.12191   -111591.22    -110768.7    527.01875    222859.93  0.047833072 
   25900    295.73878   -111592.55    -110768.3    379.17523    222796.04   0.04784679 
   26000    297.37892   -111593.69   -110764.87    -101.0905    222749.14  0.047856865 
   26100    291.59773   -111573.69   -110760.99    382.52163    222675.34  0.047872725 
   26200    297.23867   -111583.08   -110754.66   -310.45257    222589.42  0.047891204 
   26300    311.01888   -111616.32    -110749.5   -85.502508    222495.44  0.047911434 
   26400    300.18884   -111580.32   -110743.67    274.14429    222411.79  0.047929452 
   26500    304.57181   -111583.86      -110735     245.3387    222325.28  0.047948103 
   26600    294.31202   -111549.17   -110728.91   -45.806686    222245.49  0.047965318 
   26700    296.24473   -111547.72   -110722.07     21.87471    222190.79  0.047977125 
   26800    307.24345   -111571.17   -110714.87   -93.796315    222139.35  0.047988236 
   26900    301.65534   -111549.76   -110709.03    -129.2064    222069.14  0.048003407 
   27000     313.3661   -111576.47    -110703.1    34.102851    221975.83  0.048023587 
   27100    311.05125   -111561.98   -110695.07   -114.29801    221883.14  0.048043647 
   27200    310.48848   -111551.06   -110685.71   -181.19733    221763.48   0.04806957 
   27300    325.80399   -111583.49   -110675.45    -126.6736    221633.17  0.048097833 
   27400    315.81853   -111550.57   -110670.37   -375.02635    221501.13  0.048126506 
   27500    317.67337   -111555.69   -110670.32   -158.04694    221393.04  0.048150002 
   27600    316.78388   -111559.56   -110676.67   -41.473886     221303.7   0.04816944 
   27700    308.97892   -111550.68   -110689.54   -187.84816    221230.59   0.04818536 
   27800    310.37544   -111571.72   -110706.69    248.90386    221155.02  0.048201824 
   27900    301.04137   -111562.24   -110723.22    23.481613    221090.36  0.048215922 
   28000    305.82971   -111589.83   -110737.46    260.94406    221008.02  0.048233886 
   28100    298.30991   -111579.27   -110747.86   -223.51982    220904.53  0.048256481 
   28200    289.11317   -111562.37    -110756.6    -269.9153    220757.68  0.048288582 
   28300    299.89495   -111597.68   -110761.85    -100.3867    220589.68  0.048325359 
   28400    288.47817   -111570.16   -110766.15   -95.129988     220426.1  0.048361221 
   28500    280.17419    -111550.2   -110769.34    244.72369    220275.76  0.048394228 
   28600    294.64077   -111590.87   -110769.69    44.774073    220135.78  0.048425001 
   28700      286.607   -111568.24   -110769.45   -227.59456    219991.13  0.048456841 
   28800    300.46087   -111604.28   -110766.88   -520.15193    219836.13  0.048491007 
   28900    290.82813   -111572.47   -110761.92   -263.66802    219679.48  0.048525586 
   29000    301.40839   -111595.01   -110754.97   -205.17222       219522  0.048560396 
   29100    300.53175   -111585.38   -110747.78    327.35498    219380.95  0.048591619 
   29200    313.02706   -111611.46   -110739.03    -53.48907    219249.41  0.048620771 
   29300    299.83707   -111566.67   -110731.01     133.5134    219138.04  0.048645481 
   29400    308.38361    -111581.7   -110722.22    -81.86625     219033.1  0.048668788 
   29500    298.43076   -111543.48   -110711.74   -12.590232    218934.67  0.048690667 
   29600    303.38315   -111548.25    -110702.7    93.189786    218854.01  0.048708612 
   29700    298.57122   -111528.22   -110696.09   -94.170809    218773.29  0.048726586 
   29800    304.53509   -111541.18   -110692.42   -138.21148    218728.69  0.048736521 
   29900    320.54123   -111585.13   -110691.76    160.14325     218705.9    0.0487416 
   30000    316.58778    -111578.8   -110696.45   -518.97321    218731.39  0.048735919 
   30100      301.152   -111547.52   -110708.19    415.06704    218736.08  0.048734874 
   30200    310.53371   -111591.96   -110726.49   -232.19463    218713.15  0.048739984 
   30300    296.95807   -111573.91   -110746.27    14.192107    218653.91   0.04875319 
   30400     299.6488   -111595.99   -110760.86    -174.2537     218595.4  0.048766239 
   30500    293.00433   -111586.55   -110769.93    338.55492     218539.6  0.048778689 
   30600    295.28991    -111598.7   -110775.71   -277.86267    218489.18  0.048789946 
   30700    297.20607   -111607.45   -110779.12    -589.8451    218431.53  0.048802822 
   30800    304.03289    -111629.5   -110782.15    80.917811    218342.16    0.0488228 
   30900    298.15842   -111615.54   -110784.56   -74.021934    218229.37  0.048848033 
   31000    291.89247   -111600.75   -110787.23   -303.34934    218086.09  0.048880126 
   31100    292.31125   -111601.97   -110787.28   -36.493756    217918.75  0.048917661 
   31200    298.18061   -111616.85   -110785.81   -533.92822    217749.53  0.048955675 
   31300    295.43269    -111606.3   -110782.91    345.76082    217586.39   0.04899238 
   31400    302.37876   -111621.13   -110778.38   -181.90522    217467.62  0.049019137 
   31500    292.43618   -111587.78   -110772.75    250.27002    217384.79  0.049037815 
   31600    297.50226    -111594.9   -110765.74    422.24479    217323.07  0.049051742 
   31700    305.48659   -111609.44   -110758.03   -111.14467     217291.8  0.049058801 
   31800    300.21526   -111585.24   -110748.53   -212.48276    217267.13  0.049064373 
   31900     302.3275   -111580.32   -110737.71   -222.84717    217241.86   0.04907008 
   32000    301.70078   -111566.15   -110725.29    115.53338    217237.71  0.049071018 
   32100    313.70168   -111587.82   -110713.51    188.01233    217267.34  0.049064324 
   32200    313.49934   -111580.21   -110706.47   -20.615689    217297.13  0.049057599 
   32300    312.21971    -111573.2   -110703.03   -126.26108    217314.18   0.04905375 
   32400    307.79765   -111561.16   -110703.31   -175.88219    217323.05  0.049051747 
   32500    307.68057    -111565.3   -110707.78   -125.95544     217349.1  0.049045869 
   32600    305.79405   -111568.96   -110716.69    26.593744    217336.66  0.049048676 
   32700    288.90856   -111535.06   -110729.85    171.78612    217284.43  0.049060466 
   32800    304.71314   -111594.43   -110745.18     139.5585    217213.32  0.049076526 
   32900     297.6601   -111590.86   -110761.27    447.46959    217079.26  0.049106834 
   33000    282.81519      -111563   -110774.78    37.532607    216873.21  0.049153491 
   33100    299.36486   -111617.57   -110783.22   -292.77427    216648.79  0.049204408 
   33200    290.49086   -111596.42    -110786.8   -40.264093    216459.02  0.049247544 
   33300     295.1579   -111610.79   -110788.17    81.148799    216313.66  0.049280638 
   33400    286.43037   -111585.31   -110787.01    169.33747    216178.63  0.049311421 
   33500    304.49787   -111631.99   -110783.33    608.26733     216003.7  0.049351356 
   33600    304.87508   -111628.93   -110779.22    82.334984    215803.45   0.04939715 
   33700    299.12342   -111608.55   -110774.88    170.76922     215574.2   0.04944968 
   33800    291.19745   -111582.62   -110771.04   -203.05235    215319.07  0.049508273 
   33900    300.52053   -111604.41   -110766.84    258.55388    215063.75  0.049567048 
   34000    292.52919   -111577.88   -110762.58     158.8463    214855.88  0.049615005 
   34100    298.92294    -111590.3   -110757.18   -119.40447    214699.24  0.049651203 
   34200     297.6635    -111583.3   -110753.69    265.07007     214564.9  0.049682289 
   34300    305.79665   -111602.98    -110750.7    16.935476    214406.04    0.0497191 
   34400    302.05341   -111589.52   -110747.68   -150.50474    214240.04  0.049757625 
   34500    299.53163   -111581.89   -110747.07     106.8618    214090.89  0.049792289 
   34600    295.19508   -111570.02   -110747.29    58.278628     213987.4  0.049816369 
   34700    303.68232   -111596.52   -110750.14    52.469636    213885.11  0.049840194 
   34800    302.28243    -111600.4   -110757.92    -169.5832    213813.97  0.049856778 
   34900    307.53754   -111627.29   -110770.16    201.61144    213772.41   0.04986647 
   35000    296.57681   -111613.74   -110787.16   -163.96444    213772.17  0.049866526 
   35100    292.90648   -111620.48   -110804.13    19.268852    213794.58  0.049861299 
   35200    293.83689   -111636.17   -110817.23   -183.73606    213829.02  0.049853268 
   35300    300.36203   -111661.78   -110824.65   -169.03551    213845.99  0.049849312 
   35400    295.06706   -111651.72   -110829.35    225.78552    213833.37  0.049852253 
   35500     291.5225   -111642.72   -110830.23   -135.51711     213811.3  0.049857399 
   35600    285.57535   -111621.65   -110825.73   -269.02292    213771.48  0.049866686 
   35700    286.24445   -111615.09   -110817.31    90.220348    213684.72  0.049886934 
   35800    294.58031   -111626.31    -110805.3     57.93301    213561.23   0.04991578 
   35900      297.876   -111621.92   -110791.72    384.24009    213420.54  0.049948686 
   36000    302.59239   -111620.42   -110777.07   -70.436767    213270.36  0.049983858 
   36100    302.55717   -111608.09   -110764.85   -51.142518    213120.77  0.050018942 
   36200    299.42145      -111592    -110757.5    81.851277    212964.25  0.050055703 
   36300    297.04925   -111579.13   -110751.24   -2.9128926    212793.45   0.05009588 
   36400    316.27689   -111629.51   -110748.02    20.097904    212616.13  0.050137661 
   36500    301.22898   -111586.25   -110746.71    35.214329    212486.08  0.050168347 
   36600    295.38718   -111571.02   -110747.76   -483.03925    212390.06  0.050191027 
   36700    300.75837   -111588.96   -110750.73   -426.61035    212283.92  0.050216122 
   36800    299.63533   -111589.03   -110753.93    334.17655    212132.48  0.050251973 
   36900    307.30177   -111615.26    -110758.8   -96.487081    211989.82  0.050285789 
   37000    299.07277   -111600.86   -110767.33    -157.1905    211854.53  0.050317902 
   37100    296.35733   -111603.09   -110777.12    30.645738    211695.25  0.050355761 
   37200    298.23063    -111618.4   -110787.21    40.864099    211540.17  0.050392678 
   37300    302.09864    -111638.1   -110796.14    137.94173    211394.17   0.05042748 
   37400    293.07173   -111621.22   -110804.42   -662.57992       211263  0.050458791 
   37500    290.90453   -111622.04   -110811.27   -187.93055    211130.69   0.05049041 
   37600    279.34508   -111595.48   -110816.93    187.19821    211008.24   0.05051971 
   37700    289.79484   -111628.48    -110820.8   -489.40466    210912.72  0.050542592 
   37800    290.02373    -111629.2   -110820.89   -347.31207    210838.54  0.050560374 
   37900    296.24517   -111644.04   -110818.39    379.79277    210801.64  0.050569225 
   38000    289.95091   -111617.09   -110808.98    127.43497    210801.17  0.050569336 
   38100    289.96523   -111599.98   -110791.83   -182.70413    210789.45  0.050572149 
   38200    302.55342   -111613.16   -110769.93   -53.179097    210741.34  0.050583694 
   38300    308.01314   -111611.29   -110752.84   -61.480422    210697.67  0.050594177 
   38400    310.74421   -111608.09   -110742.03    46.693914     210664.7  0.050602095 
   38500    309.60079   -111598.77   -110735.89   -303.10943    210614.33  0.050614197 
   38600    311.90198   -111601.37   -110732.08   -56.009291    210541.78  0.050631638 
   38700    306.69723   -111584.89   -110730.11   -31.732242    210437.46  0.050656737 
   38800    305.41472   -111581.26   -110730.06   -124.42797    210304.85   0.05068868 
   38900     308.0573   -111590.86   -110732.29   -186.73007    210164.21  0.050722602 
   39000    307.64711   -111592.29   -110734.86   -224.02679    210048.92  0.050750442 
   39100    297.94206   -111569.72   -110739.34    -357.1862    209938.06  0.050777241 
   39200    304.64796   -111595.79   -110746.72   -121.44584    209794.79  0.050811917 
   39300    304.78328   -111605.48   -110756.03   -41.415883    209652.83  0.050846323 
   39400    299.56941   -111602.56   -110767.64    380.14312    209512.66  0.050880339 
   39500    296.00018   -111603.49   -110778.52    372.74722     209352.4  0.050919288 
   39600    293.49164   -111606.26   -110788.28   -356.20819     209168.4  0.050964081 
   39700    292.63263   -111611.03   -110795.45    -285.8735    208978.51  0.051010391 
   39800    284.31705   -111590.34   -110797.93   -44.973996    208777.84  0.051059419 
   39900    304.56314   -111647.32   -110798.48     565.7516    208558.22  0.051113187 
   40000    278.34774   -111574.11   -110798.34   -629.34078    208363.41  0.051160975 
   40100    298.55457   -111627.33   -110795.24   -11.488031    208159.08  0.051211196 
   40200    290.10247      -111596   -110787.47   -13.789847    207964.98  0.051258993 
   40300     310.9914   -111641.66   -110774.91    387.25202    207765.24  0.051308272 
   40400    295.82505   -111581.09   -110756.61   -111.71353    207560.11   0.05135898 
   40500     309.6067   -111597.27   -110734.38   -211.63828    207346.56  0.051411876 
   40600    310.81368   -111583.97   -110717.72   -99.059078    207139.66  0.051463227 
   40700    305.60148   -111562.79   -110711.06    156.78523    206944.67  0.051511718 
   40800    307.47083   -111565.49   -110708.55   -144.07424    206749.01  0.051560465 
   40900    312.37413   -111581.34   -110710.74   -71.979878    206580.85  0.051602436 
   41000    295.60337   -111538.85   -110714.98   -33.160063    206401.54  0.051647268 
   41100    296.32784   -111545.45   -110719.57   -353.27284    206255.71  0.051683783 
   41200    302.11888   -111567.74   -110725.72    231.84602    206127.55  0.051715918 
   41300    305.34791   -111583.64   -110732.62   -347.73679    206008.67   0.05174576 
   41400    306.36093   -111593.75   -110739.91    160.24874    205891.23  0.051775276 
   41500    300.49859   -111585.42   -110747.91    194.40818     205776.4  0.051804168 
   41600    303.86142    -111602.9   -110756.03    304.43504    205696.07  0.051824399 
   41700    304.56247   -111614.04   -110765.21    364.85657    205609.93  0.051846111 
   41800    306.74046   -111626.81   -110771.91   -711.33122    205538.06  0.051864239 
   41900    306.21834   -111632.28   -110778.83    367.38023     205466.1  0.051882405 
   42000    291.99643   -111598.52   -110784.71   -279.46895    205396.13   0.05190008 
   42100    295.70884   -111612.18   -110788.02   -192.71618     205276.3  0.051930375 
   42200    300.33171   -111626.26   -110789.22    227.79532    205125.89  0.051968454 
   42300    289.72241   -111595.85   -110788.38   -31.647573    204997.03  0.052001122 
   42400    303.91679   -111632.75   -110785.72    339.04281    204892.16  0.052027737 
   42500    294.47474   -111603.05   -110782.33   -244.81716    204801.61   0.05205074 
   42600    303.40728   -111625.37   -110779.76   -8.3603822    204685.58  0.052080246 
   42700    293.69645   -111594.64   -110776.09     4.985906    204563.22  0.052111399 
   42800    296.31005   -111598.15   -110772.32    342.19925    204456.43  0.052138618 
   42900    302.02077   -111610.12   -110768.37    237.41992     204339.3  0.052168503 
   43000    294.02064   -111585.43   -110765.98   -365.23676    204203.96  0.052203079 
   43100    307.52136    -111620.3   -110763.22   -383.36136    204045.11  0.052243719 
   43200    300.93561   -111601.55   -110762.83   -192.92267    203898.05    0.0522814 
   43300    305.84197   -111614.57   -110762.17   -20.334279    203726.03  0.052325544 
   43400    299.85928   -111598.03    -110762.3    382.75566    203502.81  0.052382939 
   43500    286.98493   -111560.33   -110760.49    129.90106    203266.86  0.052443745 
   43600    306.69132   -111614.41   -110759.64   -155.88775    203064.18  0.052496089 
   43700     293.9317    -111577.9   -110758.69   -36.128059    202888.77  0.052541477 
   43800    298.43352   -111588.61   -110756.86   -322.93369    202698.05  0.052590912 
   43900    297.20282   -111581.62    -110753.3    114.06396    202471.01  0.052649886 
   44000    296.50132   -111572.57    -110746.2    126.60881    202248.58  0.052707789 
   44100    316.02863   -111616.67   -110735.88    285.76968    202052.92  0.052758829 
   44200    314.63842   -111602.59   -110725.67    211.74808    201892.63  0.052800716 
   44300    309.23392   -111577.79   -110715.94    798.17235    201739.55  0.052840781 
   44400     305.8856   -111560.81   -110708.29    163.55972    201602.09  0.052876811 
   44500    314.69869   -111579.57   -110702.48    141.17653    201481.18  0.052908541 
   44600    314.13398   -111577.28   -110701.77    178.12309    201377.72  0.052935725 
   44700    313.94171   -111581.84   -110706.87    -22.86159    201273.09  0.052963243 
   44800    313.01717   -111588.68   -110716.29   -151.03622    201126.52  0.053001839 
   44900    308.42924   -111591.34   -110731.73   -26.164405    200976.04  0.053041522 
   45000     301.5893    -111590.4   -110749.86    146.42191    200839.57  0.053077566 
   45100     307.0935   -111620.22   -110764.33   -236.84728    200690.09  0.053117099 
   45200     295.6982    -111598.7   -110774.58    3.3305281    200526.73  0.053160371 
   45300    292.46444   -111595.48   -110780.36    241.36425    200370.69   0.05320177 
   45400    300.44779   -111620.63   -110783.27   -110.06635    200252.01    0.0532333 
   45500    310.86886   -111652.25   -110785.84   -210.19657    200160.93  0.053257522 
   45600    307.21338   -111644.52    -110788.3    109.26121    200036.81  0.053290568 
   45700    306.09444   -111643.53   -110790.43   -129.41314    199912.45   0.05332372 
   45800    295.04735   -111616.26   -110793.95   -73.694052    199807.98    0.0533516 
   45900    296.72456   -111621.17   -110794.18    261.15206    199720.15  0.053375061 
   46000    292.00875   -111608.87   -110795.02   -103.61482    199621.32  0.053401488 
   46100    295.54112   -111617.04   -110793.35 -0.036015216    199488.77   0.05343697 
   46200    301.45529   -111627.15   -110786.98    74.030653    199338.23  0.053477326 
   46300     289.8136   -111583.27   -110775.55    84.781627     199199.9  0.053514461 
   46400    301.38762   -111599.29   -110759.31    199.81609     199056.2  0.053553095 
   46500    310.26158   -111605.95   -110741.23   -176.19937    198906.24  0.053593469 
   46600    310.75217   -111593.09      -110727   -213.50746    198718.22  0.053644178 
   46700     311.2313   -111585.91   -110718.49    156.36664    198511.38  0.053700071 
   46800    316.56571   -111596.96   -110714.67    72.441974    198313.25  0.053753722 
   46900    316.67216   -111596.96   -110714.37    409.64138    198120.98  0.053805888 
   47000    306.37093   -111571.34   -110717.47   -414.13279    197946.41  0.053853341 
   47100    305.25315   -111573.51   -110722.75    213.22521    197766.78  0.053902255 
   47200    304.64523   -111577.71   -110728.64    397.46385    197564.22  0.053957519 
   47300    289.08377   -111541.12   -110735.43     166.8818    197354.07  0.054014976 
   47400     298.4667   -111574.39   -110742.55   -168.17989    197152.13  0.054070302 
   47500    298.17072   -111579.87   -110748.85   -161.71766    196980.59   0.05411739 
   47600    296.56581    -111579.3   -110752.75    384.35874    196840.29  0.054155962 
   47700    292.18149   -111571.95   -110757.63   -188.57013    196702.99  0.054193764 
   47800     293.7052   -111579.41   -110760.84   -320.79932    196543.09  0.054237853 
   47900       291.87   -111577.45   -110763.99   -305.89219    196363.36  0.054287497 
   48000    294.46481   -111587.25   -110766.56    129.44649     196197.8  0.054333307 
   48100    293.35879   -111586.77   -110769.16   -6.7727448    196030.46  0.054379688 
   48200    290.44708   -111580.62   -110771.13    -312.3698    195835.66   0.05443378 
   48300    297.34068   -111602.19   -110773.49    322.33688    195635.88  0.054489368 
   48400    298.16692   -111607.86   -110776.85   -381.58956    195453.69   0.05454016 
   48500    295.44822    -111605.4   -110781.97   -69.153938    195254.24  0.054595872 
   48600    290.62364   -111598.36   -110788.37    60.560629    195028.53  0.054659057 
   48700    304.72946   -111644.98   -110795.68     139.8809    194768.24  0.054732102 
   48800    298.28536   -111634.47   -110803.13   -403.58343    194499.61  0.054807696 
   48900    295.98833   -111633.97   -110809.03    259.70833    194218.07  0.054887144 
   49000    302.03497   -111654.18    -110812.4   -339.30357    193969.14  0.054957583 
   49100    282.73335   -111602.39   -110814.39    250.58188    193727.99  0.055025996 
   49200    297.03221   -111640.64   -110812.79    260.59186    193486.43  0.055094693 
   49300    289.62832   -111615.53   -110808.32   -432.25523    193256.61   0.05516021 
   49400    297.60052   -111630.19   -110800.76   -63.120284    193018.09  0.055228374 
   49500    294.60439   -111611.95   -110790.88    199.77707    192774.91  0.055298043 
   49600    294.70775   -111601.09   -110779.72   -142.12099    192548.85  0.055362966 
   49700    300.35282   -111605.21   -110768.11   -129.89761    192377.68  0.055412226 
   49800    299.43446   -111592.26   -110757.72     461.7393    192206.76  0.055461499 
   49900    309.76216   -111612.29   -110748.97    176.97789    192041.79  0.055509145 
   50000    300.31735   -111581.26   -110744.26   -198.66295    191835.54  0.055568824 
   50100    315.60495   -111620.15   -110740.54    161.69473    191605.18  0.055635631 
   50200    302.44918    -111582.8   -110739.86    67.129548    191381.83  0.055700562 
   50300    309.99561    -111603.6   -110739.63    303.03343    191197.06  0.055754388 
   50400    298.01667   -111572.02   -110741.43   -548.05332    191059.47   0.05579454 
   50500    309.66433   -111606.54   -110743.49   -3.8993212    190913.96  0.055837066 
   50600     311.5316   -111616.63   -110748.37   -236.63417    190761.77  0.055881611 
   50700    293.82393   -111576.99   -110758.09    158.03429    190636.45  0.055918349 
   50800    299.30132   -111607.91   -110773.74   -389.36069     190530.4  0.055949471 
   50900    289.17334    -111598.6   -110792.65   -537.68415    190398.77  0.055988152 
   51000     287.0141    -111607.9   -110807.97   -82.455389    190207.43  0.056044475 
   51100    293.47884   -111634.42   -110816.48   -55.029913    189998.66  0.056106055 
   51200      287.674    -111622.8   -110821.03     6.243531    189809.51  0.056161968 
   51300    284.21173   -111612.92    -110820.8   -269.04724    189615.09  0.056219551 
   51400    292.76864   -111634.02   -110818.05    404.76825    189386.58  0.056287384 
   51500    294.94907   -111634.42   -110812.38   -80.956474     189164.1  0.056353586 
   51600    297.97468   -111635.62   -110805.15   -453.34397    188948.37  0.056417927 
   51700    287.38276   -111598.61   -110797.65   -330.77277    188736.95  0.056481124 
   51800    298.08936   -111622.05   -110791.26   -151.68046    188505.78  0.056550391 
   51900    295.53098   -111609.42   -110785.75   -193.55338    188274.54  0.056619846 
   52000    289.94364   -111589.13   -110781.04    194.12693    188070.94  0.056681141 
   52100    301.65427   -111616.97   -110776.25    410.36651    187943.98   0.05671943 
   52200    314.74357   -111647.45   -110770.24   -41.198191    187876.51  0.056739799 
   52300    289.91523   -111575.34   -110767.33   -389.06072    187842.19  0.056750166 
   52400    303.42993   -111609.49   -110763.81    18.836932    187814.85  0.056758428 
   52500     297.2483   -111590.26   -110761.82    -462.6492    187766.23  0.056773123 
   52600    294.75342   -111582.03   -110760.54   -109.93676    187691.15  0.056795834 
   52700    311.08388   -111626.71    -110759.7    456.40929    187614.98  0.056818893 
   52800    307.96155   -111618.83   -110760.53   -412.46567    187563.84  0.056834384 
   52900    299.77859   -111599.48   -110763.98    -423.3058    187479.24   0.05686003 
   53000    290.68809   -111577.63   -110767.46    254.66622    187373.13   0.05689223 
   53100    294.66482   -111591.35    -110770.1   -166.02523    187254.26  0.056928347 
   53200    290.16503   -111582.82   -110774.12   -353.01795    187108.79  0.056972607 
   53300    292.62573    -111594.3   -110778.74   -135.30684    186939.76  0.057024119 
   53400    302.14231   -111627.85   -110785.76   -445.47983    186748.84  0.057082419 
   53500    305.08035   -111647.58    -110797.3    3.1453529    186534.83   0.05714791 
   53600    288.22851   -111616.73   -110813.43   -104.53606    186332.35   0.05721001 
   53700    291.60763   -111642.77   -110830.05    547.06679    186151.59  0.057265562 
   53800    284.05237   -111633.93   -110842.26   -155.13299    186019.48  0.057306231 
   53900    287.54122   -111648.31   -110846.91   -184.78641    185921.06  0.057336566 
   54000    285.07446   -111642.58   -110848.06    106.96875    185826.12  0.057365862 
   54100      281.205   -111628.05   -110844.31   -84.369581    185750.04  0.057389358 
   54200    285.01035   -111630.09   -110835.75    52.968491    185670.66  0.057413892 
   54300    291.68046    -111635.8   -110822.87    -464.6514    185595.11  0.057437264 
   54400    292.97929   -111624.61   -110808.06    145.04075    185498.53  0.057467169 
   54500    298.65514   -111626.97    -110794.6   -337.37046    185401.13   0.05749736 
   54600    297.95431   -111614.29   -110783.88    168.46777    185301.41  0.057528302 
   54700    305.18675   -111626.79   -110776.22     482.6264    185192.86  0.057562023 
   54800    299.03464   -111604.86   -110771.43    18.509128    185103.27   0.05758988 
   54900    303.21504   -111611.81   -110766.74    292.45104    185026.97  0.057613629 
   55000    295.16937   -111586.26    -110763.6   -107.80525    184947.25  0.057638464 
   55100    306.77434   -111616.04   -110761.04   -33.945624    184829.63  0.057675142 
   55200    299.22667   -111593.35   -110759.39   -199.26405    184667.85   0.05772567 
   55300    306.87863   -111611.98    -110756.7    172.61008    184514.24  0.057773726 
   55400    309.12968    -111614.8   -110753.24    203.90683       184412  0.057805758 
   55500    304.05962    -111598.9   -110751.47   -258.41871    184325.14  0.057832997 
   55600    305.49002   -111602.13   -110750.72    705.20274    184209.29  0.057869368 
   55700    302.43914   -111594.98   -110752.07    417.20248    184099.23  0.057903964 
   55800    297.37747   -111584.77   -110755.96   -307.40341    183990.54   0.05793817 
   55900    302.88551   -111608.45   -110764.29    10.804469    183860.77  0.057979065 
   56000    305.48264   -111627.55   -110776.15   -158.43971    183741.75  0.058016622 
   56100    305.19237   -111640.22   -110789.63    66.721854    183587.69  0.058065305 
   56200    285.81621   -111600.27   -110803.68   -494.09064    183376.97  0.058132028 
   56300    291.65973   -111625.96   -110813.08    156.15638    183137.81  0.058207945 
   56400    296.93829   -111645.62   -110818.04    642.23632    182927.54  0.058274853 
   56500    291.73107   -111633.49   -110820.41    646.45045    182786.34  0.058319867 
   56600      295.406   -111642.39   -110819.07    12.890296    182689.64  0.058350737 
   56700    292.55914   -111630.69   -110815.31   -291.26578    182643.95  0.058365336 
   56800    282.92034   -111595.76   -110807.25    623.53548    182624.25   0.05837163 
   56900     298.8815   -111627.68   -110794.68   -26.738883    182631.91  0.058369183 
   57000    300.52911   -111617.39    -110779.8    231.60052       182687  0.058351581 
   57100    300.62169   -111604.32   -110766.47   -575.10196    182782.81  0.058320994 
   57200    299.93958   -111592.42   -110756.48   -273.77661    182886.57  0.058287905 
   57300    297.92686   -111580.74    -110750.4    570.77194    182967.13  0.058262244 
   57400      294.951   -111568.14   -110746.09   -385.31532    183031.75  0.058241673 
   57500    303.87649   -111591.96   -110745.03    81.611378    183058.84  0.058233054 
   57600    293.91871   -111563.39   -110744.22   -580.31779    183071.05  0.058229169 
   57700    294.86661   -111565.36   -110743.55    79.499326    183044.04  0.058237763 
   57800    315.05351   -111620.55   -110742.47    26.468389    183029.51  0.058242387 
   57900    301.24023   -111582.91   -110743.34   -418.40651    183016.31  0.058246587 
   58000    299.82227   -111579.16   -110743.54    -292.7447    182989.66   0.05825507 
   58100    295.89129   -111569.47    -110744.8    129.11612    182947.14  0.058268609 
   58200    294.42227   -111566.26   -110745.68    294.07277    182897.79   0.05828433 
   58300    297.67519   -111575.05   -110745.42   -39.398573    182826.02  0.058307213 
   58400    313.34223   -111619.44   -110746.13     314.5801    182731.57  0.058337349 
   58500     293.8591   -111568.03   -110749.03    17.853885    182603.79  0.058378172 
   58600    308.57663   -111614.31   -110754.29    549.80274    182452.71  0.058426511 
   58700    292.33531   -111574.68   -110759.92   -96.190496    182245.99  0.058492785 
   58800     297.9281   -111598.78   -110768.44     577.0792    181987.83   0.05857576 
   58900    292.15879   -111591.37    -110777.1   -169.88362    181747.28  0.058653286 
   59000    291.19511   -111595.03   -110783.45    307.50075    181517.61  0.058727498 
   59100    283.04208   -111578.17   -110789.31   -265.83761    181298.18  0.058798579 
   59200    292.87883   -111608.99   -110792.72   -139.66495    181093.48  0.058865044 
   59300    308.98472   -111655.29   -110794.13    92.490197    180928.97  0.058918564 
   59400    296.45127   -111621.28   -110795.06   -74.953791    180775.07  0.058968726 
   59500    294.30588   -111616.43   -110796.18    486.96141    180648.06  0.059010183 
   59600    300.57321   -111632.12   -110794.41    56.703291    180517.92  0.059052726 
   59700    296.25013   -111615.81   -110790.14   -235.47356    180393.42  0.059093484 
   59800    286.81478   -111582.58   -110783.21   -150.70205    180267.29   0.05913483 
   59900    294.21269   -111593.67   -110773.69   -1.4014097    180132.72  0.059179005 
   60000    294.43839   -111582.14   -110761.52    124.73556    179972.81   0.05923159 
   60100    306.37298   -111600.78    -110746.9    307.78421    179820.73  0.059281681 
   60200    302.21338   -111576.02   -110733.73    154.48616    179691.09   0.05932445 
   60300    312.51232   -111594.76   -110723.77    -123.6717    179601.18  0.059354151 
   60400    301.94304   -111558.22   -110716.68    296.48816    179537.69  0.059375141 
   60500    306.12729   -111567.73   -110714.54   -636.56106     179479.4  0.059394423 
   60600    306.50705   -111568.26   -110714.01    188.33204    179413.13  0.059416363 
   60700    308.30345   -111577.01   -110717.75    404.15809    179363.25  0.059432885 
   60800    310.09563   -111588.28   -110724.03    92.565392    179341.18  0.059440198 
   60900     309.0381   -111594.56   -110733.25   -194.53362    179293.34  0.059456059 
   61000    296.84939   -111569.66   -110742.32   -558.11979    179220.69   0.05948016 
   61100    298.29067    -111582.8   -110751.44    17.864729    179129.21  0.059510536 
   61200    310.89091   -111625.54   -110759.07      302.443    179054.79  0.059535271 
   61300     296.6641   -111592.05   -110765.23    -51.68192    179010.88  0.059549875 
   61400     296.4134   -111596.74   -110770.62   -594.26962    178969.37  0.059563686 
   61500    294.38835   -111596.01   -110775.53  -0.88522165    178892.97  0.059589124 
   61600    288.79223   -111583.11   -110778.23    121.60343    178806.58  0.059617914 
   61700    296.42152   -111605.24    -110779.1    94.661816    178722.36  0.059646007 
   61800    298.53729   -111611.76   -110779.72    510.20511    178622.51  0.059679351 
   61900    297.27951   -111606.66   -110778.12    -120.0634    178537.96  0.059707614 
   62000    302.27603   -111619.58   -110777.12    182.70574    178439.15  0.059740674 
   62100    290.32579   -111584.53   -110775.38    197.94916    178310.46  0.059783791 
   62200    296.67719   -111600.73   -110773.87   -157.55186    178146.44  0.059838833 
   62300    306.82637   -111626.45   -110771.31    218.87593     177970.7  0.059897925 
   62400    290.71169   -111578.38   -110768.15    193.22264     177840.3  0.059941842 
   62500    298.58999   -111595.74   -110763.55    33.496995    177776.25  0.059963441 
   62600    286.97909   -111557.45   -110757.63    625.41771    177745.43  0.059973835 
   62700    305.17462    -111600.7   -110750.16    146.11446    177755.98  0.059970276 
   62800    307.33099   -111597.52   -110740.97    137.76259    177792.68  0.059957897 
   62900    309.65299   -111590.35   -110727.33    259.26735    177849.44  0.059938761 
   63000    307.91529   -111569.62   -110711.45   -267.29973    177923.93  0.059913669 
   63100    308.57072   -111557.73   -110697.73   -155.00581    177979.61  0.059894926 
   63200    307.85331   -111545.53   -110687.53   -76.598741    178002.66  0.059887168 
   63300    325.90806   -111590.25   -110681.93   -624.91043    177992.24  0.059890673 
   63400    315.36194   -111562.49   -110683.55    288.26923    177949.87  0.059904936 
   63500    319.31283   -111579.02   -110689.08   -170.17282    177896.88   0.05992278 
   63600    305.32386   -111548.81   -110697.86    548.20088    177813.59  0.059950846 
   63700    311.82214   -111577.18   -110708.12    95.764646    177725.29  0.059980633 
   63800    308.65156   -111577.97   -110717.74   -72.266911    177626.71  0.060013921 
   63900    302.00298   -111568.08   -110726.38    44.467717    177532.38  0.060045809 
   64000    304.61989   -111581.58   -110732.59   -139.20894     177457.3  0.060071215 
   64100    302.88224   -111581.52   -110737.37    211.64244    177383.16  0.060096321 
   64200    297.68845   -111571.91   -110742.23    25.303191    177314.81  0.060119487 
   64300    297.04754   -111574.62   -110746.73    315.51913    177255.95   0.06013945 
   64400    299.88098   -111585.66   -110749.88    23.224569    177217.41  0.060152527 
   64500    289.71284   -111560.84   -110753.39   -98.146764    177166.97  0.060169655 
   64600    302.14168   -111598.94   -110756.85    359.09386    177078.85  0.060199597 
   64700    302.19888   -111601.46   -110759.22    114.55244    176973.85  0.060235315 
   64800    294.17117   -111582.65   -110762.77       264.29    176871.32   0.06027023 
   64900    295.27509   -111588.78   -110765.83    257.52234    176784.36  0.060299878 
   65000      301.893   -111610.36   -110768.96   -129.77451    176716.27  0.060323112 
   65100    305.14143    -111624.2   -110773.75    167.40884    176662.12  0.060341601 
   65200    297.04529   -111607.46   -110779.58    214.57531    176609.44  0.060359602 
   65300    291.16663    -111597.8    -110786.3    -28.51643    176553.42  0.060378755 
   65400    289.77098   -111600.77   -110793.16    309.23788    176514.11  0.060392199 
   65500    274.36095   -111563.57   -110798.91   -232.17178    176490.99  0.060400109 
   65600    291.53839   -111614.41   -110801.87    340.63979       176506  0.060394976 
   65700    288.92937   -111608.12   -110802.86   -196.33835    176547.15  0.060380899 
   65800    286.73947   -111600.43   -110801.27   -183.21127    176568.99  0.060373429 
   65900    294.25395   -111615.74   -110795.63     170.4065    176587.43  0.060367124 
   66000    292.81284   -111602.24   -110786.15    234.63518    176633.01  0.060351548 
   66100    289.43785   -111579.82   -110773.14    97.114651    176684.22  0.060334056 
   66200    292.84354    -111574.3   -110758.12   -171.84358    176731.72  0.060317837 
   66300    302.13151   -111585.96   -110743.91   -224.49857     176777.2  0.060302319 
   66400    309.04993   -111594.66   -110733.32    48.880821       176800  0.060294545 
   66500    319.26234   -111616.59   -110726.78    323.54112    176803.61  0.060293313 
   66600      311.278   -111591.44   -110723.89   -288.02258    176799.83  0.060294602 
   66700    293.51683    -111541.7   -110723.65   -363.65619    176780.37  0.060301238 
   66800    306.96241   -111579.21   -110723.69   -41.038213    176739.14  0.060315306 
   66900    312.12626   -111597.09   -110727.18   -50.388846    176674.24  0.060337462 
   67000    310.01388   -111596.02   -110731.99   -36.383052    176587.35  0.060367152 
   67100    301.72215    -111578.7   -110737.79   -63.509318    176481.04  0.060403516 
   67200    304.10885   -111594.26   -110746.69    51.312171    176319.53  0.060458845 
   67300    302.02314   -111600.24   -110758.48   -144.56316    176145.15    0.0605187 
   67400    300.37202   -111608.83   -110771.67   -198.26167    175945.67  0.060587313 
   67500     300.9007   -111622.39   -110783.76   -15.217651    175772.42  0.060647031 
   67600    299.06568   -111626.74   -110793.23    126.94095    175634.87  0.060694527 
   67700    289.07842   -111605.82   -110800.14   -555.21564    175513.52  0.060736493 
   67800    286.68081   -111600.74   -110801.74   -220.21876    175407.19  0.060773309 
   67900    292.25156   -111616.04   -110801.52   -62.167006    175332.46  0.060799213 
   68000    285.07543   -111594.26   -110799.74   -141.23859    175281.79  0.060816787 
   68100    292.59866   -111611.78   -110796.29    -138.2401    175225.29  0.060836398 
   68200     293.8302   -111611.65   -110792.73    258.18148    175183.81  0.060850803 
   68300    291.44304   -111600.45   -110788.18    654.97642    175151.12   0.06086216 
   68400    299.08765    -111616.4   -110782.83    364.13445    175129.46  0.060869687 
   68500    303.19253   -111622.38   -110777.36    117.11542     175090.6  0.060883195 
   68600    304.26739   -111620.04   -110772.02    205.28255    175100.82  0.060879644 
   68700    299.73117   -111602.26   -110766.89    110.91084    175147.56  0.060863398 
   68800    288.82191   -111566.89   -110761.93    11.721583    175198.11  0.060845836 
   68900    287.70189   -111556.59   -110754.74   -50.973681       175203  0.060844138 
   69000    302.25006   -111587.89    -110745.5    113.10519    175169.43  0.060855797 
   69100    306.24533   -111590.03   -110736.51    40.514363    175134.13  0.060868062 
   69200    317.97095   -111616.19   -110729.98    80.010945    175101.24  0.060879496 
   69300    320.51178   -111616.86   -110723.58     246.4023    175073.01  0.060889314 
   69400    306.33126   -111573.88   -110720.12   -66.281052    175062.82  0.060892859 
   69500    309.86475   -111581.35   -110717.74   -324.86908    175078.76  0.060887312 
   69600    311.30683   -111583.83    -110716.2    138.90559    175074.36  0.060888843 
   69700    310.19924   -111582.83   -110718.28    871.91403    175082.61  0.060885974 
   69800     304.1362   -111570.73   -110723.08   -215.38081    175113.05  0.060875392 
   69900    300.87652   -111570.38   -110731.82   -60.741598    175112.86  0.060875457 
   70000    300.52413   -111580.24   -110742.66    -191.3008    175041.04  0.060900436 
   70100    299.47806   -111588.75   -110754.09   -136.20196    174934.35  0.060937577 
   70200    300.17427   -111601.44   -110764.83    147.16672    174809.62  0.060981057 
   70300    300.86297   -111612.62    -110774.1   -280.17138    174685.86  0.061024259 
   70400    293.31904   -111599.99    -110782.5    454.46861    174536.69  0.061076416 
   70500    297.20634   -111618.53    -110790.2   -35.465636    174400.56  0.061124088 
   70600    288.45158   -111599.95   -110796.02   -6.5536752     174284.2  0.061164897 
   70700    300.78916   -111637.55   -110799.23    223.82929    174167.21  0.061205984 
   70800    295.77885   -111626.29   -110801.94   -208.21987    174043.14  0.061249615 
   70900    293.66857      -111621   -110802.53   -112.89554    173921.75  0.061292364 
   71000    292.91908   -111616.79   -110800.41     468.1652    173787.54    0.0613397 
   71100     292.3464   -111612.65   -110797.87   -110.70242    173654.49  0.061386696 
   71200    293.93812   -111608.73   -110789.51    215.47911    173538.75  0.061427638 
   71300    291.61392   -111592.56   -110779.82   -183.06254    173456.88  0.061456629 
   71400    303.97262   -111614.76   -110767.57      161.991    173389.52  0.061480506 
   71500      301.135   -111591.05   -110751.76    40.373095    173320.66  0.061504931 
   71600     288.5071   -111541.21   -110737.13    371.91915    173255.12  0.061528199 
   71700    317.63331   -111609.67   -110724.41    392.67173    173192.32  0.061550507 
   71800    307.34108   -111572.05   -110715.47    33.117146    173145.17  0.061567269 
   71900    310.92453   -111577.87    -110711.3    415.36544    173136.31   0.06157042 
   72000    306.39982    -111564.8   -110710.85    49.202976    173144.09  0.061567653 
   72100    304.78752   -111563.71   -110714.25    491.67303    173121.98  0.061575516 
   72200    309.07627   -111580.92   -110719.51    222.22345    173105.53  0.061581367 
   72300    307.25569   -111583.24   -110726.91    494.24028    173107.57  0.061580642 
   72400    298.77718    -111568.8   -110736.09   -151.70911    173139.16  0.061569407 
   72500    303.98759   -111591.29   -110744.06    482.15718    173176.05  0.061556292 
   72600    297.05233   -111579.43   -110751.53    365.71527    173189.55  0.061551492 
   72700    300.10984   -111592.98   -110756.56   -186.84559    173171.69   0.06155784 
   72800    284.86857   -111554.37   -110760.42   -168.12076    173111.51  0.061579241 
   72900    296.29164    -111587.8   -110762.02    287.04772    173043.82   0.06160333 
   73000     295.1201   -111587.57   -110765.05   -348.68181    172967.71  0.061630436 
   73100    304.42074   -111617.81   -110769.37    178.59161    172875.03  0.061663477 
   73200    298.04517   -111603.95   -110773.28   -278.24629    172768.95  0.061701337 
   73300    296.73504   -111603.69   -110776.67     350.4506    172663.72  0.061738943 
   73400     295.2364   -111600.73   -110777.89    -155.7868    172551.09   0.06177924 
   73500    303.57516   -111624.69   -110778.61   -199.96136    172443.28  0.061817865 
   73600    295.42383   -111602.34   -110778.98    42.294979    172340.99  0.061854557 
   73700    297.69357    -111607.4   -110777.71   -409.80039    172266.74  0.061881218 
   73800    308.98821   -111635.73   -110774.56    791.67588    172182.12  0.061911627 
   73900    302.58886   -111611.45   -110768.11   -305.81505    172091.32  0.061944296 
   74000    298.44661   -111587.89    -110756.1    352.57938       172011   0.06197322 
   74100    305.80899   -111587.76   -110735.45    77.302823    171942.38  0.061997953 
   74200    311.98769   -111579.61   -110710.08   -418.37939    171856.03  0.062029104 
   74300    311.26296   -111562.15   -110694.64   -239.44751    171728.41  0.062075199 
   74400    311.25555   -111555.37   -110687.88   -204.47176    171597.71  0.062122479 
   74500     309.7176   -111549.55   -110686.35   -71.543447    171504.86  0.062156111 
   74600    317.86162    -111574.7   -110688.81     54.83639    171450.36  0.062175869 
   74700    311.69878    -111565.4   -110696.67    505.25949     171417.2  0.062187899 
   74800     315.0156   -111584.75   -110706.78   -618.19086    171389.02  0.062198125 
   74900    310.10029   -111582.39   -110718.12    46.565737    171336.73  0.062217107 
   75000    304.06298   -111577.98   -110730.54    237.58586    171305.23  0.062228545 
   75100    305.80346   -111594.15   -110741.86   -303.38421    171294.18  0.062232561 
   75200     302.5353   -111595.52   -110752.34    113.26145    171285.13  0.062235849 
   75300    305.37644   -111610.52   -110759.42    3.0270168       171245  0.062250432 
   75400    299.43078   -111599.84    -110765.3   -411.15485    171195.59  0.062268401 
   75500    300.42061   -111606.52   -110769.24    47.352805    171140.65   0.06228839 
   75600    287.94197   -111573.36   -110770.85    -188.5541     171069.2  0.062314405 
   75700    299.92809   -111607.52    -110771.6    190.36669    170958.66  0.062354695 
   75800    304.94234   -111622.22   -110772.33    191.74863    170838.06  0.062398715 
   75900    298.94976   -111605.93   -110772.74   -144.84748    170731.22  0.062437763 
   76000    289.25908   -111577.42   -110771.24   -615.00993    170634.69  0.062473086 
   76100    290.77008      -111577   -110766.61   -198.62205    170542.25  0.062506947 
   76200    298.64067   -111592.08   -110759.75   -617.95377    170459.92  0.062537135 
   76300    301.58281    -111591.7   -110751.18   -573.40947    170369.16  0.062570453 
   76400    295.54201   -111559.85   -110736.16   -319.76273    170282.03  0.062602469 
   76500    303.91547   -111566.35   -110719.32   -245.86886    170218.44  0.062625857 
   76600    319.79647   -111595.39   -110704.09   -492.79116    170177.95  0.062640755 
   76700    310.58868   -111560.58   -110694.95   -219.52913    170147.81  0.062651853 
   76800      310.947   -111558.54   -110691.91    495.74884     170147.4  0.062652004 
   76900     313.1315   -111566.13   -110693.41   -124.32343    170176.41  0.062641324 
   77000    302.81793   -111542.94   -110698.97    -43.94168    170192.47  0.062635411 
   77100    301.94344   -111548.06   -110706.52    125.56032    170162.14  0.062646574 
   77200    308.24413   -111576.56   -110717.47   -410.02713    170132.34  0.062657548 
   77300    308.33158   -111588.17   -110728.83   -250.71844    170121.47  0.062661552 
   77400    302.03255   -111580.72   -110738.94   -271.86941     170120.6  0.062661874 
   77500    291.48725   -111558.07   -110745.68   -664.43801    170107.13  0.062666836 
   77600     304.5399   -111599.04   -110750.27   -39.493512    170059.07  0.062684545 
   77700    299.28296    -111587.6   -110753.48   -9.1725169    169998.59  0.062706846 
   77800    293.55937   -111574.81   -110756.64    92.032459    169945.98  0.062726259 
   77900    286.21906   -111557.29   -110759.58   -317.50215    169885.79  0.062748481 
   78000     294.3517   -111581.52   -110761.14    493.29175    169803.41  0.062778923 
   78100    286.31658   -111559.39   -110761.41    39.450009     169718.4  0.062810368 
   78200    298.39731   -111592.56   -110760.91    101.60056    169607.41  0.062851473 
   78300    302.55732   -111602.38   -110759.14   -127.97256    169459.13  0.062906467 
   78400    297.47344   -111584.32   -110755.24   -41.069829    169265.59  0.062978397 
   78500    305.96649   -111602.21   -110749.47    -107.2746    169067.44  0.063052206 
   78600    298.65688   -111575.43   -110743.06    407.91389    168873.08  0.063124776 
   78700    299.37607   -111569.54   -110735.16    18.921777    168688.23  0.063193949 
   78800    298.64286   -111559.59   -110727.26    435.43999    168485.62  0.063269944 
   78900    303.43078   -111564.67   -110718.99   -405.79476     168310.6  0.063335735 
   79000    292.46905   -111527.77   -110712.64   -275.16731    168170.75  0.063388405 
   79100     302.3211   -111547.57   -110704.98    141.21958    168055.26  0.063431964 
   79200    310.65697   -111565.38   -110699.56    74.039869    167968.56  0.063464705 
   79300     311.5975   -111564.57   -110696.13   -299.68636    167915.86  0.063484623 
   79400    319.54272   -111587.36   -110696.77   -196.96012    167888.75  0.063494875 
   79500    308.93905   -111563.62   -110702.59   -645.10177    167839.59  0.063513475 
   79600    302.63536   -111557.58   -110714.11   -415.46147       167762  0.063542849 
   79700    302.65107   -111572.88   -110729.37    563.32131    167672.78  0.063576659 
   79800    302.60133   -111590.52   -110747.16   -127.77153    167595.65  0.063605919 
   79900    298.90713    -111596.3   -110763.23   -75.000676    167545.16  0.063625087 
   80000     304.7151   -111622.26      -110773    20.188798    167510.44  0.063638276 
   80100    289.31875   -111585.23   -110778.89     430.9692    167491.94  0.063645304 
   80200    295.85858   -111605.87   -110781.29   -596.26504    167463.64  0.063656061 
   80300    297.32744   -111609.61   -110780.94   -169.80007    167382.58  0.063686886 
   80400    286.41871   -111575.94   -110777.68    117.68031    167271.01  0.063729367 
   80500    294.10808   -111591.71   -110772.02   -464.50278    167152.06  0.063774719 
   80600    302.82614   -111609.23   -110765.24    733.40151    167033.62  0.063819937 
   80700    288.46022   -111561.97   -110758.01   -68.844267    166899.49   0.06387123 
   80800    307.59858   -111605.51   -110748.21    466.55314    166762.99  0.063923508 
   80900    297.88572   -111568.58   -110738.35    170.86403    166639.99   0.06397069 
   81000    308.64294   -111589.11    -110728.9    747.81246    166538.95  0.064009501 
   81100    304.81834   -111572.07   -110722.53     53.97835    166450.61  0.064043474 
   81200    316.70564   -111601.13   -110718.45   -20.500252    166335.19  0.064087913 
   81300    311.27121   -111584.15   -110716.62    201.00854     166224.6  0.064130551 
   81400    307.19401   -111575.75   -110719.58    455.90311    166134.38   0.06416538 
   81500    298.82767      -111560   -110727.15   -27.841287    166068.91  0.064190676 
   81600    306.97477   -111594.96   -110739.41   -38.578668    165991.14  0.064220748 
   81700    303.27101   -111603.58   -110758.35   -307.05885    165909.76  0.064252249 
   81800    293.88515   -111600.35   -110781.28    717.57523    165832.26  0.064282279 
   81900    293.46293   -111615.28   -110797.38   -219.30806    165790.43  0.064298496 
   82000    297.54767   -111634.28      -110805   -206.76513    165755.94  0.064311876 
   82100    295.95716   -111632.83   -110807.98    190.06156    165729.84  0.064322003 
   82200    297.82949   -111638.55   -110808.48    170.53011    165696.98  0.064334761 
   82300     291.8688   -111620.24   -110806.78   -279.13623    165645.89  0.064354602 
   82400    294.78099   -111623.94   -110802.37    137.79726    165582.24  0.064379342 
   82500    279.93506    -111575.6   -110795.41    152.88005    165496.26  0.064412787 
   82600    290.04106   -111593.81   -110785.45   -208.83558    165443.33  0.064433396 
   82700    304.19141   -111622.13   -110774.33   -171.38936     165384.9  0.064456158 
   82800    304.53062   -111612.27   -110763.53    96.633105    165305.42  0.064487148 
   82900    292.93063   -111570.42   -110754.01   -130.93628    165204.17  0.064526673 
   83000    302.09032   -111588.39   -110746.44    311.10543    165094.36   0.06456959 
   83100    296.97545   -111569.59    -110741.9   -126.63916       164971  0.064617874 
   83200    304.52167   -111586.63   -110737.91   -157.63914    164833.55  0.064671757 
   83300    314.93559   -111613.68   -110735.94   -12.224148    164666.45  0.064737383 
   83400    306.26314   -111589.36   -110735.79    93.824961    164486.39  0.064808251 
   83500    310.88307   -111604.65    -110738.2   -265.02331    164294.35  0.064884006 
   83600    302.55271      -111585   -110741.77    146.43935    164083.23  0.064967488 
   83700    301.51588   -111587.53   -110747.19    143.97185    163859.07  0.065056365 
   83800    293.75743   -111573.48   -110754.76    -325.1307    163645.19   0.06514139 
   83900    298.30136   -111595.97   -110764.59    121.47081     163476.6  0.065208569 
   84000     294.5811   -111600.01      -110779    228.62525    163327.82  0.065267971 
   84100    288.74104   -111601.01   -110796.27    427.36982    163184.14  0.065325438 
   84200    283.28831   -111599.31   -110809.77    245.19781    163049.88  0.065379229 
   84300    291.11174   -111627.96   -110816.61    70.710468    162933.37  0.065425978 
   84400    288.55188   -111622.21      -110818   -31.010297     162816.4  0.065472985 
   84500    280.82477   -111596.99   -110814.32     192.2339    162669.56  0.065532084 
   84600    298.38423   -111639.69   -110808.08     149.4555    162509.94  0.065596451 
   84700    291.26429   -111611.72   -110799.95     -222.409    162347.16  0.065662223 
   84800    295.04555   -111612.77   -110790.46   -235.99363    162166.78  0.065735258 
   84900     290.9321   -111591.79   -110780.95    469.48174    161980.71  0.065810769 
   85000    296.58473   -111598.89   -110772.29    137.85075    161799.04  0.065884666 
   85100    298.61937   -111597.72   -110765.45   -508.85601    161611.76  0.065961013 
   85200    312.91113   -111633.11      -110761   -309.72904    161391.55  0.066051011 
   85300    296.60866   -111585.39   -110758.73    627.29584    161195.32  0.066131421 
   85400    291.08967   -111567.73   -110756.44    921.01605    161029.08  0.066199692 
   85500    299.77054   -111590.15   -110754.67   -230.85133    160893.56  0.066255453 
   85600    302.76919   -111596.01   -110752.17   -448.16915       160768  0.066307197 
   85700    299.26277   -111584.03   -110749.97    64.451091     160626.1  0.066365774 
   85800    298.35758    -111578.6   -110747.06     442.8899    160484.26  0.066424429 
   85900    305.22766   -111597.81   -110747.12    211.62885     160365.3  0.066473703 
   86000    311.91482   -111618.01   -110748.68    403.95815    160267.85   0.06651412 
   86100    298.46836   -111584.61   -110752.76   -124.51421     160162.3  0.066557956 
   86200    297.90927   -111587.08   -110756.79    687.74711     160030.4  0.066612815 
   86300    300.09984   -111597.16   -110760.76    520.55605     159904.9  0.066665094 
   86400     301.0184   -111605.39   -110766.44   -404.10947    159808.85  0.066705165 
   86500     298.3466   -111606.53   -110775.02   -206.88623     159731.2   0.06673759 
   86600    293.64032   -111605.72   -110787.33   -66.905079    159644.19  0.066773964 
   86700    288.13285   -111603.71   -110800.67   -229.60779    159533.68  0.066820219 
   86800    285.01912   -111606.88   -110812.51   -155.01627     159408.2  0.066872818 
   86900    287.25516   -111620.98   -110820.39   -32.082225     159239.9  0.066943493 
   87000    287.81249   -111624.78   -110822.63     377.4677    159053.31  0.067022028 
   87100    285.67222   -111617.72   -110821.54   -79.930499    158854.93  0.067105727 
   87200    289.81616   -111623.45   -110815.72   -358.42534    158628.24  0.067201622 
   87300    292.49869   -111621.95   -110806.74    4.9706863     158390.9  0.067302323 
   87400    293.53929   -111611.27   -110793.16    490.77776    158145.95  0.067406566 
   87500    305.19822   -111628.93   -110778.33    233.92011    157926.04  0.067500427 
   87600     301.4369    -111605.4   -110765.28    97.404187     157735.2  0.067582098 
   87700    287.57888   -111555.65   -110754.15      -395.01    157555.51  0.067659172 
   87800    299.36607   -111581.96   -110747.61    26.594646     157359.1  0.067743623 
   87900    304.92942   -111591.69   -110741.83    264.21255    157165.41  0.067827108 
   88000    304.23126   -111587.14   -110739.23    519.68487    156989.05  0.067903306 
   88100    298.99559   -111570.71   -110737.39    444.54122    156811.39  0.067980236 
   88200    300.24667   -111572.17   -110735.37    248.90336    156622.85  0.068062071 
   88300    302.65434   -111579.21    -110735.7    65.265215    156414.46   0.06815275 
   88400    293.90885   -111555.35   -110736.21   -301.29732    156171.99  0.068258564 
   88500    283.19477   -111526.56   -110737.28   -56.263074    155913.68  0.068371648 
   88600    308.56571   -111597.98   -110737.99   -546.64303    155638.73  0.068492435 
   88700     305.9433   -111591.84   -110739.16     183.2027    155355.87  0.068617137 
[...]
  978700    305.84063   -111891.12   -111038.73   -12497.565    9352.3204    1.1398321 
  978800    309.13277   -111895.64   -111034.07   -1875.6133    9352.7357    1.1397815 
  978900    289.72815   -111836.95   -111029.46    4351.0966    9353.4563    1.1396937 
  979000    299.06855   -111857.15   -111023.63     5549.353    9353.1444    1.1397317 
  979100    303.71972   -111863.82   -111017.33    3122.8951    9351.8036    1.1398951 
  979200    301.36173   -111848.69   -111008.78    12297.543    9350.0335    1.1401109 
  979300    301.49976   -111838.83   -110998.53   -3785.3378    9350.4893    1.1400553 
  979400    298.35807   -111813.66   -110982.12   -6276.4276     9352.714    1.1397842 
  979500    303.60175   -111806.45   -110960.29    6184.0934    9353.8285    1.1396484 
  979600    315.90407   -111820.59   -110940.15   -2954.5142    9353.5623    1.1396808 
  979700    326.73176   -111840.62      -110930   -314.70572    9353.0494    1.1397433 
  979800    307.55559   -111784.47   -110927.29    3229.4868    9353.0839    1.1397391 
  979900    301.94014   -111770.33    -110928.8   -3367.3848    9353.9874     1.139629 
  980000    310.21221    -111798.1   -110933.52    2731.2875    9353.1574    1.1397301 
  980100    308.01211   -111799.11   -110940.67    2049.8374    9352.2886     1.139836 
  980200    317.99032   -111837.47   -110951.21     780.7679    9352.0416    1.1398661 
  980300     306.3477   -111816.76   -110962.95   -1783.5116    9352.8145    1.1397719 
  980400    300.81973   -111811.69   -110973.28   -2504.4932    9353.8573    1.1396449 
  980500    307.27352   -111837.35   -110980.96    -2777.803    9353.2015    1.1397248 
  980600    297.14298    -111817.5   -110989.34   -38.613138    9351.5309    1.1399284 
  980700    307.12214   -111852.02   -110996.05    1542.5483    9350.4492    1.1400602 
  980800    294.96563   -111824.58   -111002.49     -3734.42     9349.819    1.1401371 
  980900    299.94112   -111844.91   -111008.96   -6909.3858    9348.4996     1.140298 
  981000    296.58584   -111841.25   -111014.65    3091.8763    9347.2714    1.1404478 
  981100    292.75772   -111837.02   -111021.08   -4014.1376    9347.6555     1.140401 
  981200    293.36258   -111844.07   -111026.45   -5966.3564    9348.5409     1.140293 
  981300    302.83063   -111874.78   -111030.78    3749.0137    9349.0218    1.1402343 
  981400    286.46151   -111833.19    -111034.8    13029.744    9348.5727    1.1402891 
  981500    302.45058    -111881.6   -111038.66    5856.7345    9347.9434    1.1403658 
  981600     305.8669    -111894.1   -111041.63    -17022.12     9347.835    1.1403791 
  981700    304.68119   -111893.74   -111044.58     4602.452       9346.6    1.1405297 
  981800    290.91402   -111858.48   -111047.68    1257.9369    9343.9039    1.1408588 
  981900    275.67289   -111819.13   -111050.81    8146.1489    9339.0988    1.1414458 
  982000    303.11032   -111896.28   -111051.49    1143.3677    9331.3555     1.142393 
  982100    296.45838   -111875.44    -111049.2   -2390.4689    9322.5331    1.1434741 
  982200    298.45321   -111873.63   -111041.82     9458.416     9313.819     1.144544 
  982300    290.69789   -111838.63   -111028.44   -2004.0828    9305.9867    1.1455073 
  982400    295.82825   -111838.47   -111013.98   -5561.9854    9296.2672    1.1467049 
  982500    292.14847   -111815.71   -111001.48   -4325.6006    9284.3681    1.1481746 
  982600    305.18789   -111839.41   -110988.83   -15041.469    9271.5837    1.1497578 
  982700    303.34858   -111825.34   -110979.89    957.67341    9258.0545     1.151438 
  982800    307.59849   -111831.43   -110974.14    7709.0304    9245.2146    1.1530371 
  982900    293.04059   -111788.17   -110971.45   -6293.7614    9234.4028    1.1543871 
  983000    307.70007   -111828.99   -110971.41    8160.7685    9224.8895    1.1555776 
  983100    311.59453   -111841.57   -110973.14    25.994915    9217.6153    1.1564895 
  983200    314.52122    -111855.3   -110978.71   -3679.5396    9209.7234    1.1574805 
  983300    297.00402   -111814.19   -110986.42   -7922.1714    9201.1871    1.1585544 
  983400      300.591   -111835.07    -110997.3   -294.03414    9191.5835    1.1597648 
  983500    305.38299   -111858.77   -111007.65    1186.2451    9182.9734    1.1608523 
  983600    294.12893   -111839.47   -111019.71    5503.6233     9176.259    1.1617017 
  983700    296.99097   -111858.77   -111031.04   -4309.3487    9171.8599    1.1622589 
  983800    281.36952   -111824.57   -111040.38    3320.5115    9166.9584    1.1628803 
  983900    302.50747   -111889.22   -111046.11    8907.0115    9161.8751    1.1635255 
  984000    288.42511   -111852.56   -111048.71    -5300.769    9157.7347    1.1640516 
  984100    303.49245   -111893.09   -111047.24    1780.4814    9153.5921    1.1645784 
  984200    287.81779   -111845.62   -111043.45   -4949.0851    9149.9414     1.165043 
  984300    297.22206   -111867.34   -111038.97    -5031.516    9145.0321    1.1656684 
  984400     293.6542   -111852.54   -111034.11   -10525.223    9140.3645    1.1662637 
  984500    300.60042   -111867.89    -111030.1   -4262.1092    9135.4822     1.166887 
  984600    303.06518   -111871.48   -111026.82    5273.1428    9131.4005    1.1674086 
  984700    310.66728   -111889.74    -111023.9    -6249.051     9126.568    1.1680267 
  984800    298.13289   -111853.26   -111022.35   -6540.3723    9120.1948    1.1688429 
  984900     294.7935   -111842.54   -111020.93    2910.1475    9113.6062    1.1696879 
  985000    303.30212   -111865.32      -111020   -9349.7464    9108.2554    1.1703751 
  985100    308.10492   -111877.28   -111018.57   -730.00297    9102.7867    1.1710782 
  985200    306.98796   -111873.73   -111018.13   -6313.6511    9097.2032     1.171797 
  985300    293.67612    -111836.4   -111017.91    5446.9206    9091.2185    1.1725684 
  985400    300.34765   -111856.19    -111019.1    6042.0679    9086.1679    1.1732202 
  985500    293.31562    -111839.2   -111021.72   -520.54788    9081.2624    1.1738539 
  985600    302.12046    -111866.8   -111024.77   -1137.1281    9076.6097    1.1744556 
  985700    298.23169   -111857.86   -111026.67   -6030.8712    9073.2312    1.1748929 
  985800    304.84037   -111879.34   -111029.73     3875.788    9070.2319    1.1752815 
  985900    300.20155   -111870.06   -111033.38    3622.3398    9069.2053    1.1754145 
  986000    301.83211   -111880.71   -111039.49   -1803.8684     9070.297     1.175273 
  986100    292.83942   -111863.78   -111047.62   -6573.1388    9073.2504    1.1748905 
  986200    279.72285    -111840.9    -111061.3    1204.7805      9075.87    1.1745513 
  986300    297.14165   -111904.31   -111076.16    9251.9349    9078.4846    1.1742131 
  986400    287.62735   -111890.89   -111089.25    5134.0322    9081.1334    1.1738706 
  986500    293.53818   -111915.73   -111097.62    3731.5278    9085.7218    1.1732778 
  986600    286.41999   -111900.32   -111102.05   -795.53121    9091.2377    1.1725659 
  986700    285.60145   -111896.49    -111100.5     5074.601    9097.6096    1.1717446 
  986800    285.03107   -111890.13   -111095.73    5062.2248    9105.6394    1.1707114 
  986900    289.69737   -111892.63   -111085.23    3677.5458    9114.8966    1.1695224 
  987000    295.91843    -111894.6   -111069.85   -4449.0606    9125.3392     1.168184 
  987100     302.4006   -111899.02   -111056.22    8273.0312     9136.271    1.1667862 
  987200    285.49363   -111840.86   -111045.17    463.16279     9148.703    1.1652007 
  987300    292.56435   -111851.06   -111035.66    3645.8422    9161.3829     1.163588 
  987400    295.50876    -111852.6      -111029     5135.338    9173.0597    1.1621068 
  987500    301.35287   -111863.73   -111023.84   -5597.2747    9185.5226    1.1605301 
  987600    301.48645   -111858.61   -111018.35    1618.7777    9198.9393    1.1588375 
  987700    290.84611   -111823.15   -111012.54   -1523.8472    9211.5751    1.1572478 
  987800    294.67623    -111827.8   -111006.52    563.03288    9222.2655    1.1559064 
  987900    301.43795   -111838.69   -110998.57   -10136.365    9232.0003    1.1546875 
  988000     306.9261   -111847.41   -110991.99    -9093.729    9241.0823    1.1535527 
  988100    311.13213   -111853.95   -110986.81    3427.2488    9250.3088    1.1524021 
  988200    308.08733   -111841.45   -110982.79   -365.85005    9258.5223    1.1513798 
  988300    308.15551   -111839.63   -110980.79    4109.3836    9267.2571    1.1502946 
  988400    304.59359   -111831.71   -110982.79    5251.6371    9277.0842    1.1490761 
  988500    294.12228   -111806.88   -110987.14      236.894    9287.6911    1.1477638 
  988600    299.34828   -111827.72   -110993.41   -6178.1724    9297.4858    1.1465546 
  988700    294.46609   -111824.52   -111003.83   -4888.0304    9306.3611    1.1454612 
  988800    313.66117   -111894.39    -111020.2    10469.039    9315.0071     1.144398 
  988900    291.34146   -111852.29    -111040.3   -8511.6632    9323.3212    1.1433775 
  989000    285.66768   -111853.59   -111057.42   -6799.1816    9331.6613    1.1423556 
  989100    289.06683   -111873.11   -111067.46    3746.6502    9340.1792    1.1413138 
  989200    292.17534   -111885.44   -111071.13    7280.9364    9347.8535    1.1403768 
  989300    285.91955   -111866.55   -111069.67   -5524.4184    9354.4809    1.1395689 
  989400    285.14089   -111859.09   -111064.39     6116.457     9359.695     1.138934 
  989500    295.90236   -111882.32   -111057.62    7750.6278    9365.1592    1.1382695 
  989600    301.03568   -111887.81   -111048.81   -9461.3786    9371.9322    1.1374469 
  989700    299.31099   -111874.95   -111040.75   -1382.5938    9378.7408    1.1366212 
  989800    291.19567    -111844.3   -111032.72    628.74154    9385.1884    1.1358403 
  989900    294.18343   -111845.63   -111025.72    -2004.685     9391.782    1.1350429 
  990000    295.00567   -111839.56   -111017.37    5062.4887    9398.6947    1.1342081 
  990100    302.77071   -111854.27   -111010.44   -2106.3695    9406.1692    1.1333068 
  990200     305.4153   -111855.49   -111004.28    11863.429     9413.362    1.1324408 
  990300    303.16848   -111845.45   -111000.51   -139.15171     9418.928    1.1317716 
  990400    305.85344    -111851.5   -110999.07   -411.29552    9423.5816    1.1312127 
  990500    306.90334   -111853.91   -110998.55    10486.777     9427.182    1.1307807 
  990600    300.89758    -111836.8   -110998.18    17684.396    9429.6233    1.1304879 
  990700    298.26368   -111828.02   -110996.74   -12871.764    9431.1189    1.1303087 
  990800    299.53567   -111828.76   -110993.94   -12488.591    9429.8803    1.1304571 
  990900     302.6743      -111836   -110992.43   -10043.858    9427.7765    1.1307094 
  991000    300.94887   -111831.19   -110992.43    4015.6902    9425.2833    1.1310085 
  991100    305.64631   -111846.42   -110994.56   -3470.9477    9421.8273    1.1314233 
  991200    311.46765   -111866.19   -110998.12    2270.1312    9418.8773    1.1317777 
  991300    310.64822   -111873.21   -111007.41    7172.0066    9415.4046    1.1321951 
  991400    300.18739   -111862.75   -111026.11   -5825.9642     9410.022    1.1328428 
  991500    288.63255   -111856.64   -111052.21    475.45358    9403.7399    1.1335995 
  991600    292.20062   -111885.34   -111070.96    3360.2366     9398.522    1.1342289 
  991700    295.45291   -111903.95   -111080.51   -3176.9942    9395.3192    1.1346156 
  991800    293.27026    -111900.3   -111082.94    852.34165    9391.9707    1.1350201 
  991900    280.30417    -111861.3   -111080.07   -1473.9446    9387.6796    1.1355389 
  992000    289.61557   -111880.13   -111072.95    6206.3418    9382.8209    1.1361269 
  992100    285.68616   -111858.88   -111062.65    3285.8042    9378.3931    1.1366633 
  992200    292.01976   -111864.71   -111050.84    10052.146    9374.6589    1.1371161 
  992300     299.2603   -111872.98   -111038.92   -472.53611    9371.5308    1.1374956 
  992400    302.89409   -111871.53   -111027.35    1873.3132    9369.2056    1.1377779 
  992500    305.72813   -111869.84   -111017.76   -8242.4973    9368.4208    1.1378732 
  992600    302.32327   -111853.12   -111010.53    1229.4878    9366.8099    1.1380689 
  992700    305.02385   -111856.52    -111006.4   -13103.291    9364.8065    1.1383124 
  992800    305.46429   -111854.84    -111003.5    976.09738    9363.0409    1.1385271 
  992900    301.33741   -111841.36   -111001.52   -7909.8337    9361.4541      1.13872 
  993000    302.19841   -111841.28   -110999.03    2795.8696    9359.3977    1.1389702 
  993100    295.91197   -111821.18   -110996.46    9225.6618    9356.5885    1.1393122 
  993200    304.23875   -111842.55   -110994.62   -365.77892    9353.4522    1.1396942 
  993300    303.47915   -111838.51   -110992.69   -5066.0641    9349.2867     1.140202 
  993400    307.77106   -111850.26   -110992.48    306.31018    9344.0646    1.1408392 
  993500    303.83452   -111842.68   -110995.88     -3847.15     9338.871    1.1414737 
  993600    295.58973   -111826.78   -111002.95    2025.8162    9333.8475     1.142088 
  993700    300.91097   -111852.62   -111013.97    482.43898    9328.7105    1.1427169 
  993800    298.33691   -111857.88    -111026.4   -2627.4129    9323.1839    1.1433943 
  993900    303.25754   -111885.28   -111040.09   -1662.4419    9316.2033     1.144251 
  994000    285.14194    -111845.2   -111050.49   -1831.6853    9308.5379    1.1451933 
  994100    299.95447   -111893.56   -111057.57   -805.46549    9300.8538    1.1461394 
  994200    286.19556   -111859.21   -111061.57   -983.88674    9293.0257    1.1471049 
  994300    281.12393   -111844.33   -111060.82    5785.8995    9284.8556    1.1481143 
  994400    292.97714   -111872.82   -111056.28   -1129.9656    9277.0642    1.1490785 
  994500    304.01575   -111896.06   -111048.75   -3522.0983    9269.7184    1.1499891 
  994600    290.83451   -111850.55   -111039.98    910.83916    9260.6199     1.151119 
  994700    308.32792   -111887.52   -111028.19     4780.355    9250.4291    1.1523871 
  994800    294.72709   -111838.08   -111016.66    708.17491    9239.7936    1.1537136 
  994900    296.87547   -111833.79   -111006.38   -3778.0101     9228.406    1.1551372 
  995000    300.08447   -111834.25   -110997.89    -3721.908    9217.0056     1.156566 
  995100    308.26842   -111850.25   -110991.09   -14912.922    9207.2556    1.1577908 
  995200    301.36891    -111827.6   -110987.67   -101.32171    9199.2264    1.1588013 
  995300    295.90983   -111810.99   -110986.27   -5409.6496    9193.4135     1.159534 
  995400    292.20664   -111799.88   -110985.49    7041.8915    9187.1771    1.1603211 
  995500    315.54949   -111865.39   -110985.94    5602.8177    9179.9639    1.1612328 
  995600     312.4796   -111860.04   -110989.15   -7548.5334    9172.4794    1.1621804 
  995700     307.6629   -111850.57    -110993.1    2384.7364    9164.3549    1.1632107 
  995800    307.31385   -111853.84   -110997.34    2112.7893    9158.9447    1.1638978 
  995900    313.20788   -111875.41   -111002.48   -2843.0715    9156.4366    1.1642166 
  996000    303.28635   -111853.88    -111008.6   -749.55389    9155.5276    1.1643322 
  996100     306.1637   -111867.27   -111013.98   -2735.2389    9154.7037     1.164437 
  996200    305.55884   -111870.95   -111019.34   -14069.073    9154.1722    1.1645046 
  996300    299.63096   -111860.59    -111025.5    6269.0204     9151.718    1.1648168 
  996400    293.43281   -111848.05   -111030.23   -1385.3575    9149.0667    1.1651544 
  996500    297.95913   -111865.06   -111034.63    1388.6428     9146.832    1.1654391 
  996600    286.86642   -111838.46   -111038.95    1357.4522    9144.8945     1.165686 
  996700    291.49618   -111854.34   -111041.93   -9996.0194    9143.4193    1.1658741 
  996800    301.95303   -111886.36    -111044.8    414.73909    9140.4717      1.16625 
  996900    285.37377   -111843.19   -111047.84    266.17787    9138.5362     1.166497 
  997000    288.31395   -111854.48   -111050.93    3701.6279    9136.9978    1.1666934 
  997100     294.8111   -111874.52   -111052.87    12659.096    9136.1273    1.1668046 
  997200    290.96116   -111863.19   -111052.26   -4938.5408    9137.2967    1.1666553 
  997300    291.57098   -111858.24   -111045.62    6406.5372    9139.6153    1.1663593 
  997400    296.05547      -111861   -111035.87    3291.2498    9142.4894    1.1659926 
  997500    307.79171   -111881.28   -111023.45     1805.915    9146.7318    1.1654518 
  997600    303.42807   -111857.41   -111011.73   -4631.7728    9152.1064    1.1647674 
  997700    306.65398    -111854.9   -111000.23    1827.7375    9159.1663    1.1638696 
  997800    306.89183   -111846.72    -110991.4   -2012.2327    9165.6278    1.1630491 
  997900    307.56392   -111842.08   -110984.89    934.34435    9170.7427    1.1624004 
  998000    304.36099   -111828.46   -110980.19   -6565.6546    9174.8225    1.1618836 
  998100    315.60246   -111857.41    -110977.8   -71.771822    9177.9246    1.1614908 
  998200    315.39824   -111856.85   -110977.82    971.28057    9180.9064    1.1611136 
  998300    297.10215   -111810.48   -110982.44    2133.8701    9182.8068    1.1608733 
  998400    304.36562   -111836.87   -110988.59    6084.2644    9184.7181    1.1606317 
  998500    294.89659   -111818.38   -110996.48    8435.0469    9187.4641    1.1602848 
  998600     296.5374   -111832.02   -111005.56   -1087.0405    9192.0412    1.1597071 
  998700    292.77373   -111832.91   -111016.93    3083.5238    9196.4611    1.1591497 
  998800     310.1255   -111893.77   -111029.44    828.27185    9200.0625     1.158696 
  998900    300.09503    -111878.3   -111041.92    7276.3985    9203.1025    1.1583132 
  999000    298.21319   -111884.25   -111053.11   -3518.9406    9207.6931    1.1577357 
  999100    288.76898   -111865.56   -111060.75    5703.8394    9213.2781    1.1570339 
  999200    286.04363   -111860.49   -111063.27   -11459.089    9221.2768    1.1560303 
  999300    298.39325   -111894.12   -111062.48   -1897.8817    9229.0392     1.155058 
  999400     300.0485   -111896.68   -111060.42   -2400.8893    9235.9342    1.1541957 
  999500    295.18243   -111879.91   -111057.22    1179.3017     9243.862    1.1532058 
  999600    300.91349   -111892.21   -111053.55    -593.0868    9251.7048    1.1522282 
  999700    296.29234   -111875.04   -111049.26   -7305.2763    9260.4422    1.1511411 
  999800    294.15411   -111864.26   -111044.44   -5993.7059    9267.8478    1.1502212 
  999900    297.10825   -111865.82   -111037.76    10215.698    9275.2164    1.1493075 
 1000000    290.33859   -111841.06   -111031.87   -6135.3844    9283.2929    1.1483076 
Loop time of 101119 on 1 procs for 1000000 steps with 936 atoms

Performance: 0.214 ns/day, 112.354 hours/ns, 9.889 timesteps/s
100.0% CPU use with 1 MPI tasks x no OpenMP threads

MPI task timing breakdown:
Section |  min time  |  avg time  |  max time  |%varavg| %total
---------------------------------------------------------------
Pair    | 83297      | 83297      | 83297      |   0.0 | 82.38
Neigh   | 344.66     | 344.66     | 344.66     |   0.0 |  0.34
Comm    | 21.235     | 21.235     | 21.235     |   0.0 |  0.02
Output  | 1.5039     | 1.5039     | 1.5039     |   0.0 |  0.00
Modify  | 17453      | 17453      | 17453      |   0.0 | 17.26
Other   |            | 1.037      |            |       |  0.00

Nlocal:    936 ave 936 max 936 min
Histogram: 1 0 0 0 0 0 0 0 0 0
Nghost:    8863 ave 8863 max 8863 min
Histogram: 1 0 0 0 0 0 0 0 0 0
Neighs:    592762 ave 592762 max 592762 min
Histogram: 1 0 0 0 0 0 0 0 0 0

Total # of neighbors = 592762
Ave neighs/atom = 633.293
Neighbor list builds = 10000
Dangerous builds not checked

Please see the log.cite file for references relevant to this simulation

Total wall time: 28:05:18
