LAMMPS (09 Jan 2020)
package omp 0
WARNING: OpenMP support not enabled during compilation; using 1 thread only. (../fix_omp.cpp:125)
units			real
atom_style		charge
read_data d2000000_lmps.dat
  orthogonal box = (-15 -15 -15) to (50 50 50)
  1 by 1 by 1 MPI processor grid
  reading atoms ...
  936 atoms
  read_data CPU = 0.000520945 secs
reset_timestep		0

pair_style              reax/c lmp_control lgvdw yes
pair_coeff              * * ffield C H O N

neighbor		2.5 bin
neigh_modify		delay 0 every 5 check no

fix			qeq all qeq/reax 1 0.0 10.0 1e-6 reax/c
fix			bonds all reax/c/bonds 500 bonds.reaxc
fix			npt all npt temp 300 300 100 iso 1.0 1.0 2000
fix 1 all reax/c/species 10 10 100 species.out cutoff 1 4 0.25
WARNING: Resetting reneighboring criteria for fix reax/c/species (../fix_reaxc_species.cpp:97)


thermo			100
thermo_style            custom step temp pe etotal press vol density
thermo_modify           flush yes

timestep		0.25

dump			1 all custom 1000 dump/dump.reax.npt.* id type xu yu zu
restart			500 restart.npt300 restart.npt300
run 1000000
Last active /omp style is pair_style reax/c/omp
Neighbor list info ...
  update every 100 steps, delay 0 steps, check no
  max neighbors/atom: 2000, page size: 100000
  master list distance cutoff = 12.5
  ghost atom cutoff = 12.5
  binsize = 6.25, bins = 11 11 11
  2 neighbor lists, perpetual/occasional/extra = 2 0 0
  (1) pair reax/c/omp, perpetual
      attributes: half, newton off, ghost, omp
      pair build: half/bin/newtoff/ghost/omp
      stencil: half/ghost/bin/3d/newtoff
      bin: standard
  (2) fix qeq/reax/omp, perpetual, copy from (1)
      attributes: half, newton off, ghost
      pair build: copy
      stencil: none
      bin: none
Per MPI rank memory allocation (min/avg/max) = 53.74 | 53.74 | 53.74 Mbytes
Step Temp PotEng TotEng Press Volume Density 
       0            0   -111683.42   -111683.42    205.77654       274625  0.038816842 
     100    143.53061   -112069.92   -111669.89    39.708244    274640.95  0.038814588 
     200    168.92575   -112119.32   -111648.51    134.10399    274688.89  0.038807814 
     300    170.36065   -112100.53   -111625.73    135.54128    274746.05   0.03879974 
     400     168.3409   -112066.54   -111597.36   -211.06553    274801.86  0.038791861 
     500    178.53585   -112063.71   -111566.12   -251.91935    274846.39  0.038785575 
     600    182.97925   -112042.44   -111532.47    154.32415    274888.73  0.038779601 
     700    183.30347    -112008.7   -111497.82     -8.81601     274924.1  0.038774612 
     800     196.4998   -112008.84   -111461.19   -10.168977     274975.5  0.038767365 
     900    210.54863   -112009.42   -111422.61   -259.10391    275050.19  0.038756837 
    1000    209.49008   -111966.18   -111382.32   -273.30399    275151.18  0.038742612 
    1100    215.45372   -111942.21   -111341.73    110.61961    275228.71  0.038731698 
    1200    220.63022   -111915.74   -111300.83    335.01367    275294.43  0.038722453 
    1300    229.91803   -111900.26   -111259.46    226.52091    275333.09  0.038717015 
    1400    237.61916   -111879.37   -111217.11    77.884921    275334.07  0.038716877 
    1500    249.23438   -111869.62   -111174.99   -97.324456    275351.38  0.038714444 
    1600    247.02383   -111821.81   -111133.34    134.87714    275371.89  0.038711559 
    1700    252.54096   -111794.68   -111090.84   -177.65957    275362.74  0.038712845 
    1800     257.1263   -111764.66   -111048.04   -207.62031       275329  0.038717591 
    1900    266.18862   -111749.74   -111007.85    154.00704    275271.23  0.038725715 
    2000    292.85862    -111785.1   -110968.88    449.87198    275169.03  0.038740098 
    2100    288.31775   -111735.56      -110932    13.391331     275050.9  0.038756737 
    2200    294.02697   -111717.97    -110898.5   -259.92416    274899.17  0.038778129 
    2300    298.40009   -111698.53   -110866.87    15.770204    274724.72  0.038802753 
    2400    297.66617   -111669.21    -110839.6    48.577709    274547.21   0.03882784 
    2500     314.6823   -111692.54    -110815.5    187.73839    274418.78  0.038846012 
    2600    310.81266   -111661.73   -110795.48    252.21841    274392.09  0.038849791 
    2700     311.7409   -111648.03   -110779.19   -268.33062    274442.94  0.038842592 
    2800    304.08119   -111613.56   -110766.06   -381.11356    274521.12  0.038831532 
    2900    313.56869   -111630.94   -110757.01    351.08961    274588.74  0.038821968 
    3000     304.1122   -111600.37   -110752.79    111.19626    274640.62  0.038814635 
    3100    311.94479   -111622.83   -110753.42   -115.77361    274666.93  0.038810917 
    3200    321.27445   -111654.87   -110759.46   -52.076528    274755.77  0.038798368 
    3300    319.26038   -111660.18   -110770.39   -65.988726    274835.09   0.03878717 
    3400    312.34092   -111655.58   -110785.07    288.92356    274859.64  0.038783706 
    3500    314.12632   -111676.73   -110801.24   -134.15313    274817.77  0.038789614 
    3600    298.14947   -111650.54   -110819.58    -202.8539    274790.23  0.038793502 
    3700    309.46292   -111700.45   -110837.96    278.14753    274753.67  0.038798664 
    3800    292.28862   -111670.16   -110855.53    79.736326    274679.86  0.038809089 
    3900    294.02821   -111691.58    -110872.1   -94.431477    274528.43  0.038830497 
    4000    292.09153    -111700.3   -110886.22    188.02833    274309.67  0.038861465 
    4100    287.08736    -111695.8   -110895.67    214.64457    274097.53   0.03889154 
    4200     277.6806   -111675.71   -110901.79    380.55069    273877.18  0.038922831 
    4300    291.31891   -111714.76   -110902.84    147.25292    273690.89  0.038949325 
    4400     297.7475   -111728.66   -110898.82   -58.871016    273510.64  0.038974993 
    4500    289.92505   -111698.08   -110890.04   -18.214398    273369.48  0.038995119 
    4600    286.47735   -111678.12   -110879.69   -281.69872    273234.54  0.039014377 
    4700    294.05884   -111684.05   -110864.49    202.92446    273052.43  0.039040398 
    4800    306.81169   -111702.02   -110846.92   -41.811824    272853.72  0.039068829 
    4900    299.27913      -111663   -110828.89     478.0847    272672.98  0.039094725 
    5000    308.26301      -111671   -110811.86    194.63671    272553.73   0.03911183 
    5100    305.04633   -111645.54   -110795.36     22.47374    272475.74  0.039123025 
    5200    316.53923   -111663.56   -110781.35    -302.9482    272383.85  0.039136225 
    5300    312.19314   -111642.14   -110772.04   -274.82163     272271.2  0.039152416 
    5400    317.93715   -111653.47   -110767.37   -69.630626    272155.46  0.039169067 
    5500    304.44277   -111616.73   -110768.23    210.63266    272018.78  0.039188748 
    5600    304.72707   -111622.02   -110772.73    138.89715    271899.93  0.039205877 
    5700    317.07762    -111665.6   -110781.89      301.766    271769.55  0.039224687 
    5800     315.3026   -111672.37   -110793.61    -318.7544    271656.12  0.039241064 
    5900    311.36261   -111676.15   -110808.37    39.369585    271570.56  0.039253428 
    6000    302.79898   -111666.81   -110822.89   -11.941079    271557.89  0.039255259 
    6100    301.06922   -111676.13   -110837.03   -139.72787    271578.01   0.03925235 
    6200    281.06662   -111633.59   -110850.25    175.58904     271596.3  0.039249708 
    6300    292.90998   -111677.19   -110860.83    121.54516    271615.97  0.039246865 
    6400    298.84544   -111702.48   -110869.59   -17.743801    271584.84  0.039251364 
    6500    286.12902   -111673.73   -110876.27     158.8425    271543.59  0.039257327 
    6600    299.52886    -111716.3   -110881.49    -175.6023    271504.51  0.039262977 
    6700    289.27022   -111691.19   -110884.97   -6.1408939    271434.46   0.03927311 
    6800    284.68954   -111678.91   -110885.46    81.990644    271347.54   0.03928569 
    6900    286.71642   -111681.74   -110882.65    91.193039    271273.28  0.039296444 
    7000    292.94635   -111695.56    -110879.1    204.88445    271217.98  0.039304456 
    7100    291.75595   -111684.48   -110871.34    141.40237    271149.81  0.039314339 
    7200    293.63986   -111680.02   -110861.63    52.500216    271052.78  0.039328412 
    7300    284.82116   -111643.64   -110849.83   -222.81646    270940.57    0.0393447 
    7400    294.93297      -111660      -110838    332.47817    270804.37  0.039364489 
    7500    305.28865   -111676.05   -110825.19   -84.054175    270701.32  0.039379473 
    7600    319.07323    -111701.2   -110811.93    67.748714    270608.11  0.039393037 
    7700    309.84284   -111666.02   -110802.47   -89.243246    270515.77  0.039406484 
    7800    307.18732   -111651.79   -110795.64   -225.50566    270381.83  0.039426005 
    7900    314.54596   -111669.73   -110793.07   -83.255737    270212.38  0.039450729 
    8000    311.30996   -111661.64      -110794    222.21321    270052.11  0.039474142 
    8100    313.30297      -111671   -110797.81   -187.52315    269879.88  0.039499333 
    8200    305.21992   -111654.75   -110804.09   -16.350208    269716.73  0.039523227 
    8300    294.77086   -111632.97   -110811.42   -227.30457    269526.76  0.039551084 
    8400    301.04956   -111657.37   -110818.32    164.44208    269305.12  0.039583634 
    8500    300.37224   -111663.41   -110826.26    66.886644    269125.89  0.039609995 
    8600    303.97665   -111682.51   -110835.31     70.93753    269014.55   0.03962639 
    8700     295.7169    -111670.4   -110846.22   -176.68851    268924.93  0.039639595 
    8800    298.50668   -111687.62   -110855.66   -206.40945     268822.8  0.039654655 
    8900    299.11057    -111698.1   -110864.46    66.073216    268711.31  0.039671108 
    9000    302.92873   -111715.86   -110871.58    43.443403     268632.5  0.039682746 
    9100    293.59837   -111694.76   -110876.48    209.35641    268603.12  0.039687088 
    9200    287.49914      -111682   -110880.73    259.45135    268590.77  0.039688912 
    9300    292.50398    -111696.9   -110881.68   -440.08171    268567.66  0.039692326 
    9400    296.14557   -111706.97    -110881.6     100.7791    268560.08  0.039693447 
    9500    293.55407    -111696.9   -110878.75   -191.74029    268573.58  0.039691451 
    9600    289.45298   -111678.51   -110871.79   -58.493198    268570.65  0.039691885 
    9700    295.95039   -111688.07   -110863.24     139.5461    268519.26  0.039699482 
    9800    295.64433   -111676.84   -110852.87    137.05742    268398.59   0.03971733 
    9900    299.26071   -111676.37   -110842.32    49.875638    268216.59   0.03974428 
   10000    304.51304    -111681.2   -110832.51   -160.35343    268008.75  0.039775102 
   10100    302.92524   -111668.13   -110823.86    151.89512    267736.62  0.039815529 
   10200    309.14414   -111677.12   -110815.52    218.15971    267459.64  0.039856762 
   10300    306.75113   -111663.42   -110808.49    28.574443    267215.48   0.03989318 
   10400    295.84919   -111627.98   -110803.43   -21.765018    267023.65   0.03992184 
   10500     312.3282   -111668.38    -110797.9    261.52237    266841.59  0.039949077 
   10600    304.45014   -111643.71   -110795.19   -246.01528    266620.77  0.039982164 
   10700    305.22725   -111644.87   -110794.18    227.06017    266390.17  0.040016775 
   10800    320.37537   -111688.17   -110795.26    206.03762    266198.55   0.04004558 
   10900    311.71715   -111666.04   -110797.27   -12.889693    266069.65  0.040064981 
   11000    307.97251   -111662.27   -110803.93    89.754384     265945.8  0.040083639 
   11100    307.98755   -111669.08   -110810.71   -180.19225    265791.45  0.040106917 
   11200    302.30033   -111661.59   -110819.06    29.440023    265607.15  0.040134746 
   11300    301.79561   -111669.91   -110828.79   -224.28279    265464.36  0.040156333 
   11400    294.87734   -111659.36   -110837.52   -167.96695     265361.9  0.040171838 
   11500    293.61254   -111663.04   -110844.72    -116.0338    265267.77  0.040186093 
   11600     304.0413   -111697.72   -110850.34   -183.79543    265150.69  0.040203838 
   11700    295.24267   -111676.43   -110853.57   -37.356757    265012.75  0.040224764 
   11800    305.48398   -111708.93   -110857.53   -133.23099    264896.25  0.040242455 
   11900    284.19952   -111652.04   -110859.96    29.131602    264788.46  0.040258836 
   12000     293.2362   -111677.76   -110860.49   -87.124634     264682.7  0.040274923 
   12100    300.72086   -111697.15   -110859.02   -267.73875    264562.03  0.040293293 
   12200    284.65034   -111648.86   -110855.53    70.446078    264375.72  0.040321688 
   12300    295.55194   -111675.31   -110851.58   -114.06826    264123.53  0.040360188 
   12400    291.35862    -111657.5   -110845.47    303.69996    263802.39   0.04040932 
   12500    305.98012   -111690.86   -110838.08    85.695799    263468.44   0.04046054 
   12600    292.42163    -111644.1    -110829.1   -157.63977    263158.93  0.040508128 
   12700     308.7399    -111679.7   -110819.22   -99.114472    262881.93  0.040550811 
   12800    303.04225   -111656.95   -110812.35    82.564748    262614.06  0.040592174 
   12900    310.38149   -111672.59   -110807.54   -299.48562    262282.01  0.040643563 
   13000    303.58259   -111651.48   -110805.38    158.47507    261827.61    0.0407141 
   13100    295.12091   -111625.93   -110803.41    91.629173    261349.49  0.040788582 
   13200    294.99334   -111624.91   -110802.75   -115.84888    260914.57  0.040856574 
   13300    315.05953    -111681.6   -110803.51    190.25933    260473.29   0.04092579 
   13400    304.46255   -111654.95   -110806.39   -98.152933    260065.63  0.040989942 
   13500    314.19492   -111688.52   -110812.84    115.95876    259673.73  0.041051805 
   13600    292.85091   -111639.71   -110823.52    65.395548    259288.77  0.041112753 
   13700    302.61757   -111679.75   -110836.34   -2.6978729    258868.46  0.041179507 
   13800    302.26122   -111691.16   -110848.74    369.66397     258421.6  0.041250713 
   13900    305.16859   -111711.99   -110861.47    105.16189    258038.65  0.041311933 
   14000    295.58538   -111696.19   -110872.37   -60.793378    257673.11  0.041370539 
   14100    299.64642   -111713.67   -110878.54    311.23326       257313  0.041428436 
   14200    292.19958   -111697.21   -110882.83   -450.25144    256985.08  0.041481301 
   14300     294.1291   -111705.48   -110885.72    165.37585    256632.11  0.041538353 
   14400    278.24173   -111661.69   -110886.21   -87.616925    256254.64  0.041599541 
   14500    291.83752   -111695.33   -110881.96    53.196406    255838.02  0.041667283 
   14600    294.27993    -111695.4   -110875.22   -58.610273    255434.15  0.041733165 
   14700    298.16805   -111698.21   -110867.19    254.46916    255058.52  0.041794626 
   14800    299.79361   -111695.39   -110859.84   -64.760567    254721.35  0.041849949 
   14900    297.03829   -111681.23   -110853.37   -222.80026    254428.62  0.041898098 
   15000    311.14367   -111716.34   -110849.17    22.137292    254144.63  0.041944917 
   15100    298.04915   -111677.48    -110846.8    13.601513     253830.6   0.04199681 
   15200     296.8516    -111671.4   -110844.06   -47.540617    253484.27  0.042054189 
   15300    299.97434   -111676.59   -110840.54    59.986841    253113.43  0.042115803 
   15400    304.07581   -111684.26   -110836.78   -102.10737     252748.4  0.042176628 
   15500    305.88009   -111687.56   -110835.06   -172.80039    252360.63  0.042241436 
   15600    303.75911   -111680.44   -110833.85    144.72384    251949.02  0.042310446 
   15700    300.23897   -111669.39    -110832.6    -150.0087    251536.24   0.04237988 
   15800    299.85562   -111668.63   -110832.91    358.48721    251140.07  0.042446733 
   15900    301.93378   -111675.69   -110834.18   -365.25807    250761.22  0.042510861 
   16000    298.09404    -111665.2    -110834.4   -198.32341    250350.14  0.042580665 
   16100    296.11508   -111659.43   -110834.14    326.20618     249936.1  0.042651203 
   16200    295.56675   -111655.58   -110831.82    36.619954     249545.5  0.042717962 
   16300    306.76198   -111682.69   -110827.73    140.40531    249169.46  0.042782431 
   16400    306.43871   -111677.79   -110823.73    137.47305    248783.24  0.042848848 
   16500    294.77342   -111641.23   -110819.68     8.289747    248365.25  0.042920962 
   16600    302.35582   -111654.08    -110811.4   -137.46575    247912.15  0.042999407 
   16700    310.94003   -111666.81    -110800.2   -23.048778    247456.01  0.043078668 
   16800    310.26396   -111653.41   -110788.69   -162.36917    247006.38  0.043157085 
   16900    300.04095   -111613.97   -110777.74   -286.88088    246531.92  0.043240143 
   17000    308.83714   -111631.16   -110770.41    52.224832    246012.35  0.043331465 
   17100    303.32496   -111612.18   -110766.79   -25.831951    245493.62  0.043423024 
   17200    319.30756   -111654.86   -110764.94     18.25829    244979.21  0.043514204 
   17300    314.11416    -111642.4   -110766.95   -105.71264    244476.21  0.043603734 
   17400    314.17019   -111651.92   -110776.31    46.818297    243930.96  0.043701198 
   17500    308.52803   -111651.84   -110791.95   -262.46215    243362.11  0.043803349 
   17600    304.60131   -111657.63   -110808.69    -500.3277     242766.1  0.043910889 
   17700    305.53739   -111675.48   -110823.93    514.03216    242147.89  0.044022994 
   17800    306.09496   -111687.49   -110834.39   -9.4173654    241592.07  0.044124277 
   17900    300.84656   -111681.15   -110842.67   -257.67903    241097.55   0.04421478 
   18000    293.47833   -111666.74   -110848.79   -201.10695    240606.36  0.044305045 
   18100    287.10965   -111654.88   -110854.68    70.543451    240083.68  0.044401499 
   18200    290.93362   -111667.81   -110856.96   -136.18566     239553.9  0.044499694 
   18300    299.39732    -111689.9   -110855.47    143.32263    239017.85  0.044599494 
   18400    292.08541   -111667.19   -110853.13   -75.281434     238537.3  0.044689344 
   18500    303.33011   -111694.33   -110848.93   -113.78653    238081.03  0.044774989 
   18600    300.14291   -111680.32    -110843.8   -4.8601716    237624.55  0.044861002 
   18700    290.91443   -111647.23   -110836.44    36.962553    237185.26  0.044944088 
   18800    302.81851   -111668.92   -110824.95   -94.539328    236778.09  0.045021375 
   18900      294.232   -111632.31   -110812.27   -88.780876     236404.2   0.04509258 
   19000    309.91267   -111665.18   -110801.44    87.836717    236054.19  0.045159441 
   19100    303.65409   -111637.91   -110791.61   0.42448184    235696.02  0.045228067 
   19200    304.81833   -111633.41   -110783.86   -12.551263    235343.72  0.045295771 
   19300    317.19157   -111664.46   -110780.43     68.31297    235019.95  0.045358172 
   19400    303.47452   -111626.51   -110780.71   -99.025609    234732.77  0.045413664 
   19500    310.85682   -111650.87   -110784.49   -75.772578    234453.34   0.04546779 
   19600    305.75644   -111642.52   -110790.36   -167.09323    234200.96  0.045516788 
   19700    303.94041   -111645.03   -110797.93    223.46216    233953.12  0.045565007 
   19800    299.16448   -111636.32   -110802.53    89.276209    233711.08  0.045612194 
   19900    295.76478   -111630.53   -110806.22   -166.56578     233465.2  0.045660232 
   20000    301.56206   -111649.99   -110809.51    40.086668    233213.64  0.045709485 
   20100    303.66543   -111658.66   -110812.33    160.95071    232941.28  0.045762929 
   20200    301.86891   -111656.25   -110814.93    187.68492    232640.69  0.045822059 
   20300    301.63798   -111658.79   -110818.11     164.9323    232344.07  0.045880557 
   20400    301.09537   -111659.48   -110820.31    48.934697    232074.46  0.045933859 
   20500     305.3724   -111673.23   -110822.14     208.9048     231824.3  0.045983425 
   20600    295.83574   -111650.39   -110825.88    130.38166     231592.5  0.046029449 
   20700    293.56036   -111646.86   -110828.69    34.285907    231369.68  0.046073779 
   20800    300.71224   -111667.86   -110829.76    224.05638    231155.49  0.046116471 
   20900    299.45993    -111665.6   -110830.99    138.89787    230941.46  0.046159211 
   21000    291.77076   -111644.28    -110831.1   -204.95633    230740.35  0.046199443 
   21100    296.19473   -111655.25   -110829.73   -100.23918     230601.6  0.046227239 
   21200    293.03255   -111643.37   -110826.67    23.030566       230484  0.046250826 
   21300    311.93081   -111690.95   -110821.58   -282.15123    230353.01  0.046277127 
   21400    305.33611   -111666.17   -110815.18   -233.37614    230201.19  0.046307647 
   21500    302.61085   -111652.01   -110808.62    30.918626    230030.15  0.046342079 
   21600    310.26939   -111666.13   -110801.39   -325.49137    229843.01  0.046379811 
   21700    312.32114    -111665.4   -110794.94    151.14083    229662.24  0.046416318 
   21800    311.55475   -111658.78   -110790.46   -315.04927    229493.76  0.046450393 
   21900    307.65425   -111646.57   -110789.12    129.47418    229310.15  0.046487585 
   22000    313.88249   -111665.53   -110790.72    84.488023    229126.11  0.046524926 
   22100    307.17983   -111651.03    -110794.9   -91.347747    228928.25  0.046565137 
   22200    308.45093   -111661.74   -110802.07   -103.00512    228731.71  0.046605149 
   22300    313.00194   -111685.99   -110813.64   -66.520771    228548.75  0.046642458 
   22400    308.76708   -111689.66   -110829.11    109.01184    228350.59  0.046682932 
   22500     287.1447   -111644.78   -110844.49    246.35686    228136.45  0.046726752 
   22600    293.18016    -111673.4   -110856.29   -26.296488    227942.59  0.046766492 
   22700    290.02132   -111673.04   -110864.74   -45.097276    227726.48  0.046810874 
   22800    289.51474   -111674.36   -110867.46    337.71708    227491.88  0.046859147 
   22900    298.28388   -111697.36   -110866.02    16.779033    227296.57  0.046899411 
   23000    299.63744   -111696.98   -110861.87     102.9234    227129.51  0.046933906 
   23100    289.14826   -111660.98   -110855.11   -197.60103     226961.5  0.046968651 
   23200    310.89717   -111714.95   -110848.46    204.66505     226774.3  0.047007422 
   23300    291.41412   -111653.17   -110840.98    141.40748    226602.11  0.047043143 
   23400    304.46589   -111682.41   -110833.84    541.37372    226431.94  0.047078498 
   23500    296.22421   -111652.41   -110826.81    24.512639    226287.36  0.047108575 
   23600    310.59153   -111685.82   -110820.19   -68.685467    226146.43  0.047137934 
   23700    309.07271   -111674.03   -110812.63    137.05262     226010.2  0.047166345 
   23800    303.33683   -111652.78   -110807.37    5.1896047    225906.17  0.047188066 
   23900    308.00296    -111661.5   -110803.08   -107.49343    225833.51  0.047203249 
   24000    318.91148   -111691.41   -110802.59   -266.69508    225777.15  0.047215031 
   24100    308.75779   -111665.15   -110804.62    401.85026    225722.72  0.047226418 
   24200    303.85295   -111655.34   -110808.49    165.64381    225708.59  0.047229373 
   24300    296.53518   -111637.99   -110811.53   -508.91683    225674.03  0.047236606 
   24400    305.00203   -111663.49   -110813.43   -230.82383     225622.4  0.047247415 
   24500    297.08737   -111644.08   -110816.08   -402.00487    225516.73  0.047269554 
   24600    300.93926   -111657.81   -110819.08    268.06351    225386.36  0.047296896 
   24700    303.42328   -111666.77   -110821.11   -237.01363    225266.81  0.047321998 
   24800    292.96604   -111638.61   -110822.09   -159.51089    225146.54  0.047347276 
   24900    299.19637   -111656.58   -110822.71     2.591147    225012.59  0.047375461 
   25000    306.62508   -111676.77   -110822.19     123.1305    224870.55  0.047405386 
   25100    291.36619   -111634.05      -110822    115.48831    224732.78  0.047434448 
   25200    297.01456   -111648.49   -110820.69   -301.52726    224604.41   0.04746156 
   25300    302.02222   -111660.04   -110818.29      378.086    224455.29   0.04749309 
   25400    297.18775   -111645.21   -110816.94   -30.630042    224279.48   0.04753032 
   25500    294.27673   -111638.33   -110818.16   -97.862613    224100.91  0.047568193 
   25600    296.71436   -111647.19   -110820.23    119.93516    223913.57  0.047607992 
   25700    307.96141   -111680.85   -110822.55    366.44301    223760.47  0.047640565 
   25800    302.63035   -111668.82   -110825.37   -70.846442    223640.81  0.047666057 
   25900    299.86886   -111665.67   -110829.91    220.63312    223506.12  0.047694781 
   26000    298.72367   -111667.98   -110835.42    614.03629    223379.16  0.047721889 
   26100    289.70017   -111650.06   -110842.65    -383.5829    223272.23  0.047744744 
   26200    296.18698   -111675.81   -110850.32      274.564    223117.25  0.047777908 
   26300    292.57961    -111673.3   -110857.86   -171.19243     222941.3  0.047815614 
   26400    305.30184   -111716.09    -110865.2    96.261474    222766.89  0.047853051 
   26500    294.45234   -111692.75   -110872.09    324.84769    222612.11  0.047886323 
   26600    300.43026   -111713.68   -110876.36   -130.51711    222441.93  0.047922959 
   26700    294.51268   -111700.14   -110879.32    282.51174    222255.26  0.047963209 
   26800    303.41672    -111727.5   -110881.86   -59.869242    222097.11  0.047997361 
   26900    292.41498    -111696.8   -110881.82   -79.264234    221953.18  0.048028486 
   27000    285.51458   -111675.07   -110879.33    10.143765    221810.79  0.048059318 
   27100    288.95381   -111677.52   -110872.19    207.75293    221704.02  0.048082463 
   27200    297.84167   -111690.95   -110860.84    255.06641    221634.22  0.048097606 
   27300    297.48895   -111675.39   -110846.27    265.16771    221577.24  0.048109974 
   27400    303.48913   -111676.94    -110831.1   -20.186684    221518.23   0.04812279 
   27500    301.04344   -111658.72   -110819.69   -18.127071    221437.66  0.048140299 
   27600    313.08262   -111680.59   -110808.01    326.52693    221339.31   0.04816169 
   27700    291.48636   -111614.08   -110801.69   -486.35848    221261.09  0.048178716 
   27800    302.00342   -111639.52   -110797.82   -122.93016    221151.91  0.048202502 
   27900    312.81773   -111668.16   -110796.32   -66.887663    221000.16    0.0482356 
   28000    310.14444   -111662.63   -110798.24   -97.128046    220828.54  0.048273088 
   28100    302.84103   -111646.76   -110802.73    -38.45605    220640.48  0.048314231 
   28200    299.56287   -111644.64   -110809.74    370.54605    220449.31  0.048356129 
   28300    307.76083   -111675.79   -110818.05   -243.44155    220265.66  0.048396446 
   28400    305.57734    -111680.2   -110828.54   -377.28212     220087.3  0.048435668 
   28500    292.49693   -111653.65   -110838.44    194.64712    219934.72   0.04846927 
   28600     289.6012   -111652.15   -110845.02   -41.564858    219807.94  0.048497226 
   28700     291.7315   -111660.18   -110847.11   -337.86649    219702.69   0.04852046 
   28800    294.73424   -111668.47   -110847.03   -161.84725    219621.04  0.048538497 
   28900    296.48959   -111673.17   -110846.84   -79.745243    219564.87  0.048550916 
   29000     305.5988   -111697.72      -110846    547.74574    219529.86  0.048558658 
   29100    302.11229   -111686.06   -110844.06   -249.91007    219516.76  0.048561557 
   29200    299.96698    -111678.8   -110842.78   -54.978978    219486.58  0.048568233 
   29300    299.08047   -111673.62   -110840.07    34.337542    219431.18  0.048580496 
   29400    296.18675    -111663.1   -110837.61   -35.078819       219364  0.048595372 
   29500    291.86233   -111648.52   -110835.08    140.13175    219295.74    0.0486105 
   29600     295.8534    -111656.5   -110831.94    17.539554     219252.2  0.048620152 
   29700    303.13078   -111675.35   -110830.51   -303.66815    219228.87  0.048625327 
   29800    295.57706   -111653.82   -110830.03   -248.33341     219165.9  0.048639298 
   29900    297.57245   -111659.07   -110829.72    313.76615    219062.84  0.048662179 
   30000     307.3457   -111687.15   -110830.56    173.76518    218938.77  0.048689757 
   30100     304.2922   -111682.44   -110834.36   -86.539799    218802.28  0.048720128 
   30200     297.8309   -111669.22   -110839.15    -44.56566    218626.76  0.048759244 
   30300    290.87177   -111654.78   -110844.11   -51.629838    218401.94  0.048809435 
   30400    288.23793   -111650.81   -110847.47    97.498997       218180  0.048859087 
   30500    297.96665   -111678.53   -110848.08     230.4982    217990.95  0.048901458 
   30600    297.14804   -111676.68   -110848.51   -280.86457    217814.11  0.048941161 
   30700    300.10355   -111685.44   -110849.03    163.59921    217594.84  0.048990478 
   30800    289.84535    -111656.1   -110848.29    -18.17207    217362.49  0.049042846 
   30900    295.90109   -111670.29   -110845.59    69.692438    217159.66  0.049088653 
   31000    297.23219   -111671.09   -110842.69   -101.72963    216982.75  0.049128676 
   31100    302.35961   -111682.21   -110839.51   -75.703365    216802.99  0.049169411 
   31200    296.29998   -111659.73   -110833.93   -261.17672    216584.05  0.049219116 
   31300    295.03452   -111647.38   -110825.11   -1.4954785    216372.86  0.049267155 
   31400    307.57089   -111674.04   -110816.83    270.00647    216201.87   0.04930612 
   31500    301.72491   -111650.22   -110809.29    -313.7516    216041.72  0.049342671 
   31600    300.62361   -111641.62   -110803.77    483.00782    215840.37  0.049388701 
   31700    305.73335   -111652.43   -110800.34    24.603033    215601.04  0.049443525 
   31800    305.63802   -111649.35   -110797.52   -21.060464    215386.75  0.049492717 
   31900     304.5164   -111646.41    -110797.7    315.02731    215200.29  0.049535599 
   32000    296.83197    -111629.5   -110802.21    62.740168    215028.27  0.049575228 
   32100    302.25007   -111652.25   -110809.86     107.5789    214866.28  0.049612602 
   32200    304.85299   -111671.51   -110821.87   -221.02486    214738.44  0.049642139 
   32300    310.59877   -111703.18   -110837.52    315.86015    214648.64  0.049662907 
   32400    298.14411   -111683.86   -110852.92    190.17547    214559.51  0.049683537 
   32500    287.23829    -111664.7   -110864.15     415.5688     214449.5  0.049709023 
   32600    298.90972   -111703.15   -110870.07    2.9802837     214325.9   0.04973769 
   32700    299.10325   -111705.76   -110872.15   -194.99987    214206.11  0.049765504 
   32800    301.93457   -111713.37   -110871.86    370.05017    214081.88  0.049794383 
   32900    295.08521   -111691.89   -110869.48   -440.65159    213995.34  0.049814522 
   33000    298.65634   -111696.61   -110864.24     514.7153    213929.63  0.049829822 
   33100    296.76867   -111685.71    -110858.6    81.724606    213887.49   0.04983964 
   33200    290.15279      -111660   -110851.33    46.942858    213809.13  0.049857905 
   33300    286.22552   -111638.78   -110841.05   -196.21252    213714.51  0.049879979 
   33400    309.75847   -111694.83   -110831.52    336.16529    213659.35  0.049892858 
   33500    306.56195   -111677.36   -110822.95    253.06561     213629.1  0.049899921 
   33600    293.34323   -111634.19   -110816.63    306.18937    213615.12  0.049903187 
   33700    295.00168   -111635.43   -110813.24   -181.94077    213546.11  0.049919313 
   33800    314.25218   -111686.75   -110810.91   -208.04934    213429.74  0.049946532 
   33900     304.6551   -111659.47   -110810.38    158.48363    213289.52  0.049979368 
   34000    298.24661   -111640.49   -110809.26   -722.59597    213155.48  0.050010797 
   34100    303.92826   -111657.88   -110810.81    54.984662    213006.84  0.050045694 
   34200    294.92027   -111634.23   -110812.27    131.90588     212849.9  0.050082595 
   34300    304.61519   -111661.54   -110812.56   -145.64179    212713.49  0.050114713 
   34400    301.90465   -111654.63   -110813.21     238.4475    212616.55  0.050137561 
   34500    301.19324   -111652.89   -110813.45    10.126942    212552.44  0.050152684 
   34600    293.81904   -111633.53   -110814.63   -24.207311    212481.08  0.050169528 
   34700    305.52514   -111668.73   -110817.22    131.36643    212368.46  0.050196133 
   34800     296.9042   -111647.75   -110820.26   -213.03486    212218.09    0.0502317 
   34900    302.04385    -111666.8   -110824.98    392.85552    212041.48  0.050273538 
   35000    298.94572   -111666.47    -110833.3    101.02233    211869.42  0.050314364 
   35100    309.29944   -111705.81   -110843.78   -154.34032    211705.12  0.050353413 
   35200    296.59839   -111682.15   -110855.52    299.14069    211568.57  0.050385911 
   35300    302.49001    -111711.2   -110868.14    196.99606    211444.06  0.050415583 
   35400    294.86187   -111701.78   -110879.98    73.322579    211328.89  0.050443057 
   35500     280.7389   -111672.13   -110889.69   -457.33066    211197.39  0.050474466 
   35600    294.35992   -111715.35   -110894.95   -706.18735     211050.7  0.050509549 
   35700    282.34806      -111683   -110896.08    89.586783    210899.24  0.050545821 
   35800    291.74558   -111708.56   -110895.45   -379.25071    210778.55  0.050574763 
   35900    294.00535   -111711.52   -110892.11   -249.17402    210648.23  0.050606053 
   36000    302.31192   -111726.76    -110884.2    162.25262    210484.08  0.050645518 
   36100    293.97358   -111690.01   -110870.69   -93.110814    210318.12  0.050685483 
   36200    301.06042   -111692.84   -110853.77   -452.95686    210175.05  0.050719986 
   36300    294.05747   -111656.92   -110837.36   -221.85529    210030.86  0.050754804 
   36400    306.67323   -111679.99   -110825.28    200.40218    209888.44  0.050789245 
   36500     293.6337   -111638.32   -110819.94   -534.19371    209738.31  0.050825601 
   36600    302.34731   -111660.24   -110817.58    156.53649    209589.24   0.05086175 
   36700    314.05001   -111692.05   -110816.78    196.30123    209427.73  0.050900974 
   36800    303.05459   -111662.61   -110817.98   -17.008732    209251.33  0.050943883 
   36900    298.54334   -111651.71   -110819.65    75.849344    209057.83  0.050991036 
   37000    295.64711   -111645.55   -110821.57    388.13581    208849.91  0.051041799 
   37100    306.68461   -111679.71   -110824.96   -119.47525    208659.37  0.051088411 
   37200    299.66914   -111664.71   -110829.51    128.81821    208476.33  0.051133264 
   37300    292.83803    -111652.2   -110836.05     284.4908    208305.62  0.051175168 
   37400    296.55717    -111670.3   -110843.77    141.72463    208111.29  0.051222957 
   37500    305.10112   -111703.07   -110852.73   -140.23328    207940.28  0.051265082 
   37600    301.95122   -111703.78   -110862.23    28.297489    207770.32  0.051307016 
   37700    293.96458   -111690.01   -110870.71    165.47779    207594.93  0.051350363 
   37800    294.25797   -111697.09   -110876.98    177.40538    207461.81  0.051383313 
   37900    290.08035   -111690.51   -110882.04    155.78836    207362.41  0.051407945 
   38000    293.34704   -111703.25   -110885.67    82.629199    207276.09  0.051429354 
   38100    283.25334   -111675.67   -110886.23    34.826942    207171.97    0.0514552 
   38200    286.01807   -111681.45    -110884.3    52.635822    207045.81  0.051486554 
   38300    291.22141   -111688.07   -110876.42    270.69781     206928.2  0.051515819 
   38400    291.17669   -111671.62   -110860.09   -101.53044    206833.16  0.051539489 
   38500    303.65436    -111684.7    -110838.4   -86.733971    206772.98   0.05155449 
   38600    308.20497   -111679.26   -110820.27   -43.173444    206729.83   0.05156525 
   38700    298.12908   -111639.34   -110808.44   -41.869631    206668.85  0.051580465 
   38800    304.94163   -111652.41   -110802.52    43.420303    206597.24  0.051598344 
   38900    304.88103    -111648.3   -110798.58   -105.48012    206543.12  0.051611863 
   39000     313.7932   -111671.86    -110797.3   -254.70644    206483.73  0.051626708 
   39100    300.78149   -111634.19    -110795.9   -135.41098     206377.3  0.051653334 
   39200    306.73929    -111652.5    -110797.6   -423.77515    206246.05  0.051686203 
   39300    296.48127   -111628.81    -110802.5   -636.34178    206090.49  0.051725218 
   39400    304.30201   -111657.34   -110809.23    165.39478    205908.73  0.051770876 
   39500    301.68675   -111658.73   -110817.91    177.20689    205711.66  0.051820472 
   39600    293.58548   -111646.77   -110828.53    109.15427    205517.04  0.051869544 
   39700    293.76851   -111657.86   -110839.11    194.93007    205355.08  0.051910455 
   39800    303.90386   -111695.81   -110848.81    127.55607    205215.76  0.051945695 
   39900    299.28012   -111690.96   -110856.85   -2.3686504    205108.11  0.051972959 
   40000    292.16856   -111679.26   -110864.97   -149.41831    204999.86  0.052000404 
   40100    302.96419    -111714.9   -110870.52   -195.58135     204857.8  0.052036463 
   40200      295.409   -111698.79   -110875.47    -116.7248    204712.59  0.052073376 
   40300    287.84933   -111680.52   -110878.27     363.5189    204556.49  0.052113113 
   40400    284.58999   -111671.87    -110878.7   -115.84387     204402.4  0.052152397 
   40500    297.97544   -111706.02   -110875.54    411.93489    204242.53  0.052193221 
   40600    307.49469   -111726.08   -110869.07    523.92119    204108.85  0.052227404 
   40700    300.74472   -111694.26   -110856.07    -240.5502    203992.31  0.052257242 
   40800    314.86122   -111711.09   -110833.55    26.841363    203853.45  0.052292839 
   40900    306.99043   -111665.83   -110810.23    336.14093    203696.29  0.052333184 
   41000     313.5906   -111668.34   -110794.34   -45.797735    203496.98  0.052384441 
   41100     313.6557   -111659.89   -110785.71   -13.962113     203238.7   0.05245101 
   41200    304.19731   -111631.62    -110783.8   -56.788709    202969.09  0.052520683 
   41300    309.63329   -111647.37    -110784.4    15.419419    202717.68  0.052585819 
   41400    303.79532   -111633.39   -110786.69   -253.69661    202498.08  0.052642847 
   41500    298.71761   -111622.71   -110790.17    534.66784    202270.17  0.052702162 
   41600    308.84737   -111655.68    -110794.9    324.27057    202081.06  0.052751481 
   41700    309.85536   -111665.03   -110801.44    140.02068    201933.18  0.052790112 
   41800    302.29677    -111653.9   -110811.38    -317.4128    201797.08  0.052825716 
   41900    301.93403   -111664.37   -110822.86   -82.074649    201617.88  0.052872669 
   42000    308.23185   -111693.23   -110834.17   -528.53547    201418.02  0.052925133 
   42100    301.24782   -111686.16   -110846.56    435.50387    201206.39  0.052980799 
   42200    304.59411   -111706.55   -110857.63    73.111256    200993.87  0.053036817 
   42300    299.68475   -111702.31   -110867.07   -463.07078    200787.59  0.053091305 
   42400    299.46431   -111707.48   -110872.86    324.17669    200572.55  0.053148228 
   42500    298.48882   -111708.44   -110876.54   -306.06682     200393.3  0.053195768 
   42600    301.87406   -111719.44    -110878.1    109.17499    200227.69  0.053239766 
   42700    299.40966   -111712.59   -110878.12   -17.194766    200072.68  0.053281013 
   42800    296.34798   -111701.34    -110875.4   -83.135578    199921.98  0.053321177 
   42900    295.37082   -111696.05   -110872.84     101.8003     199785.8  0.053357523 
   43000    298.16998   -111699.65   -110868.63   -165.00145     199642.8   0.05339574 
   43100    303.65891   -111709.97   -110863.66   -293.08502    199469.91  0.053442022 
   43200    305.00836   -111708.38    -110858.3    310.15698    199317.36  0.053482926 
   43300    295.50518    -111677.2   -110853.61   -459.35359    199180.42  0.053519695 
   43400    293.35527   -111668.13   -110850.53   -540.60999    199030.71  0.053559952 
   43500    287.09629   -111647.36    -110847.2   -114.69934    198871.36  0.053602869 
   43600    303.61012    -111685.9   -110839.72    32.294571    198712.35  0.053645762 
   43700    307.31666   -111686.27   -110829.77   -96.592252    198577.78  0.053682117 
   43800    309.21625   -111676.82   -110815.02    96.223341    198454.34  0.053715506 
   43900    312.14816   -111665.32   -110795.35    -427.1238    198341.45  0.053746079 
   44000     318.2327   -111661.29   -110774.36    76.858822    198203.59  0.053783462 
   44100    311.92934   -111631.39   -110762.03   -150.23768    198056.35  0.053823447 
   44200    319.56749   -111647.98   -110757.33   -187.86681    197890.06  0.053868675 
   44300    316.24517   -111641.47   -110760.08    541.97386    197712.68  0.053917004 
   44400    322.57989   -111665.28   -110766.23    134.46975    197540.71  0.053963943 
   44500     301.1666   -111612.66   -110773.29    203.20003    197368.46  0.054011038 
   44600    307.72543   -111639.92   -110782.28   -76.271114    197214.47   0.05405321 
   44700    307.05877   -111645.81   -110790.02   -421.15507    197044.56  0.054099821 
   44800    314.20787   -111675.38   -110799.66   -163.81979    196844.06  0.054154925 
   44900    301.35828   -111649.37   -110809.46   -41.286377    196637.69  0.054211759 
   45000    300.25742   -111654.29   -110817.45     1.169334    196434.94  0.054267715 
   45100     299.3244   -111659.08   -110824.84    239.66692    196238.66  0.054321995 
   45200    303.58106   -111679.32   -110833.22    281.44393    196037.29  0.054377793 
   45300    295.70838   -111662.34   -110838.18    122.11083    195814.47  0.054439672 
   45400    299.27393   -111677.21   -110843.12    6.6329785    195586.41  0.054503149 
   45500    300.03531   -111680.91   -110844.69     364.9485    195366.32   0.05456455 
   45600     299.4314   -111681.05   -110846.51   -305.68765    195199.46  0.054611194 
   45700     295.7385   -111672.68   -110848.44     15.46617     195047.2  0.054653824 
   45800    294.08696   -111669.59   -110849.95    155.26067    194902.47  0.054694409 
   45900    298.04735   -111681.78    -110851.1   -119.18997    194757.86  0.054735021 
   46000    299.63174   -111689.01   -110853.92   -135.86322    194588.87  0.054782554 
   46100    303.39434   -111702.16   -110856.58     126.9886    194400.95  0.054835512 
   46200     310.5403   -111726.22   -110860.73   -154.18119    194210.99  0.054889147 
   46300    296.73506    -111694.2   -110867.19    213.46571    194031.11  0.054940031 
   46400    296.39042   -111701.64   -110875.59    603.83979    193857.65   0.05498919 
   46500    295.27226   -111706.01   -110883.07    262.20326    193718.71  0.055028632 
   46600    288.75362   -111694.17    -110889.4    225.40934     193602.1  0.055061776 
   46700    284.52861   -111685.76   -110892.76    291.63651    193476.53  0.055097511 
   46800    292.17335    -111708.4   -110894.09    100.53636    193345.56  0.055134835 
   46900    297.12362    -111719.2    -110891.1    146.86906    193197.72  0.055177023 
   47000    285.60686   -111681.46   -110885.46   -182.18709    193043.75  0.055221032 
   47100    293.15947   -111693.58   -110876.52   -148.31335    192889.46  0.055265205 
   47200    307.50608   -111721.39   -110864.35    65.773795     192727.5  0.055311647 
   47300    302.35126   -111692.13   -110849.46   -73.990529    192577.54  0.055354717 
   47400    291.43466   -111649.03   -110836.79   -75.275953    192431.09  0.055396844 
   47500    303.48156   -111672.83   -110827.01    1.8984609    192282.64  0.055439613 
   47600    312.75362   -111692.68   -110821.02    64.053373    192113.85  0.055488323 
   47700    311.29172   -111684.24   -110816.65    150.02642     191942.9  0.055537742 
   47800    300.21729   -111653.02    -110816.3   -23.696708    191780.05  0.055584901 
   47900    308.28767   -111675.48   -110816.26    346.75573    191641.35  0.055625132 
   48000    311.01622   -111684.87   -110818.05   -289.44101    191546.95  0.055652545 
   48100    304.52041   -111671.32    -110822.6    542.38004     191476.7  0.055672963 
   48200    301.20892   -111669.64   -110830.15   -107.67066    191482.11  0.055671391 
   48300    314.89304   -111715.23   -110837.61   -387.02815    191505.44  0.055664608 
   48400    310.74998    -111714.4   -110848.32    -166.8568    191532.95  0.055656613 
   48500     304.4451   -111707.75   -110859.24    -207.2762    191559.52  0.055648893 
   48600    293.05647   -111685.49   -110868.73   -253.91313    191559.96  0.055648765 
   48700    289.81316   -111683.07   -110875.34   -610.17778    191575.38  0.055644286 
   48800    301.30852   -111718.62   -110878.86    331.45904    191602.63  0.055636372 
   48900    300.44219   -111717.89   -110880.54   -362.01877    191618.13  0.055631871 
   49000    297.96963   -111710.11   -110879.65   -83.352425    191582.44  0.055642236 
   49100    302.41332   -111721.07   -110878.22   -102.14782    191514.41  0.055662001 
   49200    302.71774   -111718.47   -110874.78   -213.10869     191408.6  0.055692771 
   49300     297.7249   -111700.79   -110871.01    244.89347    191300.47  0.055724251 
   49400    297.69233   -111696.09    -110866.4   -162.28889    191191.73  0.055755943 
   49500    290.13961   -111669.91   -110861.28     247.8606    191085.73  0.055786873 
   49600     295.1681   -111676.71   -110854.06   -440.67516    190981.44  0.055817335 
   49700    311.53244   -111715.88   -110847.62    470.20899    190873.75  0.055848829 
   49800    298.99393    -111674.2   -110840.88    -313.1605    190778.42  0.055876737 
   49900     302.6125   -111677.24   -110833.84   -291.77547    190658.99  0.055911738 
   50000    304.75683   -111676.32   -110826.94   -476.76523    190527.76  0.055950247 
   50100    299.54167   -111654.68   -110819.84    107.48895    190376.39  0.055994735 
   50200    302.30068   -111655.67   -110813.14    -59.81499       190229  0.056038119 
   50300    306.61414   -111661.47   -110806.92   -150.52624    190084.75  0.056080646 
   50400    304.30887   -111649.93    -110801.8    92.662137    189957.45  0.056118229 
   50500    300.88982   -111636.16   -110797.57   -478.35714     189803.5  0.056163745 
   50600    314.30251    -111670.7   -110794.72   -431.99152    189595.75  0.056225286 
   50700    310.99025   -111660.33   -110793.58    -115.1224    189351.09  0.056297936 
   50800    310.90799    -111663.4   -110796.88    -46.33902    189122.95  0.056365847 
   50900    299.87968   -111643.97   -110808.19   -433.56532    188923.95  0.056425219 
   51000    299.48045   -111662.19   -110827.52    392.83973    188739.96  0.056480226 
   51100    294.38269    -111667.1   -110846.64    184.20981    188547.15  0.056537983 
   51200    309.06539   -111720.98    -110859.6    230.66401    188380.51  0.056587994 
   51300    293.93465   -111687.78   -110868.56    166.85337    188252.43  0.056626496 
   51400    299.08578   -111707.92   -110874.35   -17.721751    188160.11   0.05665428 
   51500    293.55752   -111697.66   -110879.49     190.0208     188081.9  0.056677838 
   51600    299.96997   -111718.71   -110882.68   -260.37721    188021.62  0.056696009 
   51700    296.73067   -111712.87   -110885.86    69.215079    187987.12  0.056706413 
   51800    294.33431   -111706.67   -110886.34    218.93483     187940.8   0.05672039 
   51900    285.70322   -111680.67   -110884.39    99.950606    187852.48  0.056747055 
   52000    297.57851   -111708.67    -110879.3    26.470781    187739.38  0.056781243 
   52100    292.88301   -111687.25   -110870.97   -504.92317    187645.11  0.056809769 
   52200    293.68121   -111677.83   -110859.33   -180.32125    187589.48  0.056826615 
   52300    298.86161   -111678.45    -110845.5   -169.23914    187539.23  0.056841842 
   52400    291.64423   -111643.07   -110830.24   -71.107068    187448.47  0.056869365 
   52500    289.13475   -111623.88   -110818.04     77.32331    187327.26  0.056906162 
   52600    296.43672   -111637.72   -110811.54   -212.49229    187211.59  0.056941323 
   52700    310.00397   -111671.33   -110807.33   -308.30972     187120.8   0.05696895 
   52800    311.13081   -111673.42   -110806.28   -66.947053    187006.69   0.05700371 
   52900    309.77258   -111670.24   -110806.88    242.94102    186878.56  0.057042795 
   53000    304.58748   -111657.59   -110808.69    6.4250717    186782.32  0.057072187 
   53100    304.57501   -111660.74   -110811.88    44.918252    186720.57   0.05709106 
   53200    298.89501    -111649.1   -110816.06    67.985405    186654.69  0.057111212 
   53300    318.93763   -111711.12   -110822.23   -168.67108    186585.22  0.057132476 
   53400    303.05505   -111675.35   -110830.72   -169.96435    186542.43  0.057145581 
   53500    301.55762   -111682.16    -110841.7     355.3174    186531.55  0.057148912 
   53600    293.75543    -111670.7   -110851.99    -40.68719    186549.15   0.05714352 
   53700    305.96405   -111711.89   -110859.15    34.446761    186567.51  0.057137897 
   53800    307.72681   -111722.36   -110864.71   -444.96768    186581.16  0.057133717 
   53900    282.99488   -111657.47   -110868.74    258.66279    186566.55  0.057138193 
   54000    291.67548   -111682.07   -110869.15   -196.79523    186528.28  0.057149915 
   54100    291.02103   -111680.85   -110869.76   -285.96141    186441.43  0.057176538 
   54200    289.06905   -111673.18   -110867.53    545.01441    186338.78  0.057208035 
   54300    292.89406   -111681.56   -110865.24    317.30199       186232  0.057240835 
   54400    294.20916   -111682.39   -110862.41   -69.943999    186128.35  0.057272711 
   54500    308.32984   -111719.92   -110860.58    233.42938    186056.62  0.057294793 
   54600     291.3281   -111671.98   -110860.03   -108.78635    186007.76  0.057309842 
   54700    295.97112   -111683.08   -110858.19     555.5226    185930.89  0.057333536 
   54800    290.63015   -111665.29   -110855.29    37.363255    185820.72  0.057367527 
   54900    306.67363   -111707.01   -110852.29   -132.01789    185698.12  0.057405401 
   55000    299.95488   -111684.71   -110848.72    335.14176    185565.37  0.057446469 
   55100    305.08822   -111693.54   -110843.24    551.49505     185474.4  0.057474645 
   55200    307.96499   -111696.36   -110838.04    36.237171    185437.16  0.057486187 
   55300      302.738   -111677.56   -110833.81   -452.06483    185399.18  0.057497965 
   55400    297.79514   -111658.47    -110828.5   -534.82629    185332.87  0.057518535 
   55500      307.444   -111679.15   -110822.28    107.75456     185233.1  0.057549517 
   55600    311.10726   -111682.86   -110815.79   -339.75683    185123.49   0.05758359 
   55700    307.41409   -111663.16   -110806.37   -187.64722    184983.69  0.057627108 
   55800     300.1886   -111631.86   -110795.21   -8.0695937    184851.51  0.057668315 
   55900    299.60109   -111618.71    -110783.7   -298.32699    184754.26  0.057698672 
   56000    324.86843   -111678.95   -110773.52    144.07544    184661.71  0.057727589 
   56100    308.47203   -111625.98   -110766.25    -166.1004    184588.47  0.057750493 
   56200    319.80366   -111654.09   -110762.78   -554.27844    184537.75  0.057766366 
   56300     301.4888   -111607.28   -110767.01    162.17652    184498.53  0.057778646 
   56400    310.12423   -111640.88   -110776.54   -247.85496    184458.95  0.057791045 
   56500    312.24453   -111664.02   -110793.77    42.972594    184426.32  0.057801268 
   56600    305.76252   -111665.78    -110813.6    51.569606     184393.6  0.057811527 
   56700    309.31985   -111691.37   -110829.28   -552.09357    184382.18  0.057815105 
   56800    298.48079   -111671.02   -110839.14    153.40468    184367.79  0.057819619 
   56900    306.04145   -111699.24   -110846.28   -215.89614    184348.54  0.057825655 
   57000    295.11665   -111675.97   -110853.47   -220.22515    184333.11  0.057830497 
   57100    308.38281      -111720   -110860.52    84.678732    184318.98  0.057834931 
   57200    291.43545   -111679.08   -110866.84   -621.07408    184301.31  0.057840476 
   57300     299.5768   -111704.87   -110869.93   -187.93381    184230.18  0.057862809 
   57400    296.33487   -111698.99   -110873.09   -699.98486    184135.29  0.057892626 
   57500    292.74786   -111689.54   -110873.64    140.26023    184042.23  0.057921897 
   57600    296.95187    -111700.2   -110872.57    39.233962    183945.64  0.057952315 
   57700    295.90217   -111695.11   -110870.41   -176.80276    183846.48   0.05798357 
   57800    294.59859   -111687.89   -110866.83   -133.47483    183731.17   0.05801996 
   57900    296.03012   -111686.89   -110861.84    344.13639    183611.35  0.058057822 
   58000    290.15828   -111661.83   -110853.14   -101.97475    183511.34  0.058089465 
   58100    311.80649   -111709.05   -110840.03    278.73449    183428.68  0.058115642 
   58200    311.02235      -111693   -110826.16    106.13241    183365.53  0.058135655 
   58300    312.29083   -111683.01   -110812.63    44.257496    183307.68  0.058154002 
   58400     314.3276   -111677.68   -110801.63   -266.20365    183247.13  0.058173218 
   58500    303.72034   -111640.53   -110794.05   -107.69251    183211.45  0.058184549 
   58600    305.05198   -111641.56   -110791.36   -371.80645    183192.29  0.058190632 
   58700    304.96687   -111640.39   -110790.43   -137.90616    183156.15  0.058202114 
   58800    305.62542    -111643.9    -110792.1    -138.1257    183116.46   0.05821473 
   58900    311.43994   -111663.89   -110795.89    256.18807    183057.29  0.058233548 
   59000    304.46954   -111651.88   -110803.31    101.13151    182970.76  0.058261086 
   59100    317.61484   -111697.13   -110811.92   -192.81977    182864.99  0.058294787 
   59200    322.66667   -111721.07   -110821.77    34.888438    182773.53  0.058323956 
   59300    313.60228   -111703.36   -110829.33      -557.87    182692.02  0.058349979 
   59400    293.14911   -111652.87   -110835.84   -26.296146    182621.14  0.058372624 
   59500    303.63607   -111686.39   -110840.14    321.75644    182579.48  0.058385943 
   59600    312.09177   -111713.52    -110843.7   -219.30302    182553.06  0.058394394 
   59700    301.07173   -111686.78   -110847.68    69.574784    182515.34  0.058406461 
   59800    297.54886   -111681.61   -110852.32   -37.052857    182449.74  0.058427464 
   59900    302.27839   -111696.81   -110854.34   -623.55008    182399.92  0.058443423 
   60000    294.29575   -111676.55   -110856.33    336.58804    182339.99  0.058462628 
   60100     297.2992   -111686.43   -110857.84    124.54835    182275.39  0.058483349 
   60200    308.59141    -111718.5   -110858.44   -116.12971    182187.89  0.058511437 
   60300     307.4576   -111714.76   -110857.86   -28.852639     182087.1  0.058543824 
   60400    293.18893   -111677.65   -110860.51   -347.70526    181981.75  0.058577717 
   60500    297.34017   -111691.44   -110862.74    848.01966    181851.27  0.058619746 
   60600    298.50677   -111697.65    -110865.7    86.441441    181735.47  0.058657099 
   60700    298.59854   -111700.94   -110868.73   -33.254114    181651.81  0.058684113 
   60800    303.01159   -111718.06   -110873.55   -13.157764    181623.56  0.058693239 
   60900    296.65898   -111703.49   -110876.69    154.83791    181604.86  0.058699283 
   61000    307.18009    -111738.7   -110882.58    469.46949    181584.79  0.058705771 
   61100    291.14806   -111700.89   -110889.44   -164.62627    181556.76  0.058714837 
   61200    293.30945   -111712.71   -110895.24   -54.068893    181513.22   0.05872892 
   61300     293.7759   -111719.44   -110900.67    128.74565    181471.67  0.058742365 
   61400    288.68194    -111708.4   -110903.83   -23.864147    181427.53  0.058756658 
   61500    285.08731   -111699.42   -110904.87   -217.35534    181400.64  0.058765369 
   61600    284.10879   -111694.51   -110902.68    110.75036    181375.06  0.058773657 
   61700    295.39952   -111719.43   -110896.14   -155.19798    181347.86  0.058782472 
   61800    300.21632   -111723.33   -110886.61   -216.13286    181310.44  0.058794602 
   61900    289.36115    -111677.6   -110871.14    111.93182    181295.46  0.058799461 
   62000    303.18339   -111699.45   -110854.46    46.625826    181292.22  0.058800511 
   62100    304.58754    -111690.9   -110841.99   -217.51297    181276.39  0.058805646 
   62200    307.55336   -111690.35   -110833.18   -720.12288    181244.31  0.058816054 
   62300    310.57059   -111694.32   -110828.74     161.9349     181183.2  0.058835891 
   62400    309.07084   -111689.34   -110827.94    148.32067    181109.19  0.058859937 
   62500    302.40128   -111670.42   -110827.61    760.42849    181018.89  0.058889298 
   62600    300.74867   -111667.47   -110829.26   -194.15909    180957.06   0.05890942 
   62700    303.03165   -111677.74   -110833.18    53.839985    180908.36  0.058925278 
   62800    302.93879   -111682.93   -110838.63    229.78294       180853  0.058943314 
   62900    282.95825   -111633.48   -110844.86    -467.9962    180781.94  0.058966484 
   63000     296.6883   -111678.45   -110851.57    134.08327    180681.94  0.058999121 
   63100    304.98389   -111708.35   -110858.34     12.73574    180546.45  0.059043394 
   63200    299.81707      -111702   -110866.39   -183.57514    180403.52  0.059090173 
   63300    290.88424   -111686.28   -110875.57    728.57039    180300.71  0.059123867 
   63400    287.67813   -111688.36   -110886.58   -583.03945    180234.77    0.0591455 
   63500    293.85997   -111718.29   -110899.28    100.56586    180172.21  0.059166035 
   63600    291.04883   -111722.65   -110911.48    237.01823    180122.32  0.059182422 
   63700    280.47354      -111706   -110924.31    338.40968    180083.45  0.059195197 
   63800    272.42526   -111692.14   -110932.88    -54.36187    180076.64  0.059197435 
   63900    279.98027    -111719.6   -110939.28   -132.96073    180057.54  0.059203714 
   64000    277.79083    -111715.3   -110941.08    9.8761417    180023.11  0.059215038 
   64100    276.81396   -111709.14   -110937.64    263.38322    179987.86  0.059226636 
   64200     295.1979   -111748.46   -110925.72    250.88929    179963.82  0.059234546 
   64300    287.32513   -111706.29    -110905.5   -7.5995911    179957.34   0.05923668 
   64400    295.80788   -111707.22   -110882.78    -24.90175    179924.47  0.059247501 
   64500    295.82386   -111691.61   -110867.13    144.51138    179875.36  0.059263679 
   64600    303.55905   -111703.82   -110857.79   -13.730304    179810.98  0.059284896 
   64700    305.50232   -111703.46   -110852.01   -22.852654    179758.85  0.059302089 
   64800    304.49027   -111694.89   -110846.25   -136.83872    179704.67  0.059319969 
   64900    302.23073   -111684.06   -110841.73    314.00053    179650.59  0.059337827 
   65000    300.89867   -111677.91   -110839.29   -191.41204     179626.7  0.059345717 
   65100    300.24812   -111673.72   -110836.91     2.212055    179610.39  0.059351106 
   65200    303.71905   -111682.65   -110836.17   -428.44776    179596.13   0.05935582 
   65300    300.53938   -111674.83   -110837.21   -187.93274    179574.05  0.059363117 
   65400    283.91924   -111629.38   -110838.08   -323.80339     179570.7  0.059364223 
   65500    296.67552   -111665.62   -110838.77   -223.83162    179574.02  0.059363126 
   65600    306.64779   -111693.93   -110839.28   -288.85776    179551.21  0.059370668 
   65700    306.15123   -111694.58   -110841.32   -345.53024    179486.87  0.059391952 
   65800     306.0246   -111698.06   -110845.15    183.26882    179439.07  0.059407772 
   65900    299.36609      -111685   -110850.65   -183.85476    179396.94  0.059421725 
   66000    293.62182   -111678.33   -110859.99   -410.23222     179355.8  0.059435352 
   66100    297.42092   -111700.26   -110871.33   -452.19902    179299.07  0.059454159 
   66200    299.55043   -111716.01   -110881.14    183.73234    179199.19  0.059487297 
   66300    293.58882   -111706.98   -110888.73     328.6651    179084.13  0.059525517 
   66400    292.17645   -111709.15   -110894.84   -276.68538    178991.51   0.05955632 
   66500    286.93176   -111697.61   -110897.91    380.87749    178897.84  0.059587501 
   66600    292.28319   -111711.65   -110897.04    420.15103    178805.68  0.059618216 
   66700    293.92232   -111711.42   -110892.25   -294.11572    178731.27  0.059643034 
   66800    296.02835   -111708.94    -110883.9    63.007765       178625   0.05967852 
   66900    291.15631   -111682.37    -110870.9     44.18961    178501.08  0.059719949 
   67000    293.86689   -111671.31   -110852.29   -151.99498    178375.82  0.059761885 
   67100    304.93282   -111684.81   -110834.94    135.24804    178259.16  0.059800995 
   67200     312.2963   -111692.13   -110821.75    214.28598    178142.96  0.059840002 
   67300     307.3823   -111671.03   -110814.34    419.21337    178049.31  0.059871479 
   67400    308.39027   -111670.82   -110811.32   -607.48823    178005.83  0.059886103 
   67500    297.55651   -111640.25   -110810.94    112.75862    177980.05  0.059894776 
   67600    312.73758   -111684.77   -110813.15    13.129413    177961.41   0.05990105 
   67700    297.91097    -111647.6   -110817.31    351.06098    177963.83  0.059900236 
   67800    309.26466   -111685.01   -110823.07    60.601527    177971.17  0.059897764 
   67900    303.95592   -111676.87   -110829.73    185.14118    177957.04  0.059902522 
   68000    302.45187   -111681.85    -110838.9    71.265535    177920.75  0.059914739 
   68100    295.88665   -111671.12   -110846.47   -228.91186    177843.32  0.059940827 
   68200    312.52578   -111725.71   -110854.68    366.96618    177760.35  0.059968803 
   68300    295.70901   -111686.67   -110862.51    236.83411    177688.21  0.059993151 
   68400    294.57071   -111689.78    -110868.8   -337.93497    177627.98  0.060013493 
   68500    296.25188   -111699.78   -110874.11   -270.61774    177566.52  0.060034266 
   68600    297.73703   -111707.09   -110877.28   -368.51142    177485.27  0.060061745 
   68700    292.78756   -111695.47   -110879.46    419.21421    177379.21  0.060097658 
   68800    299.52942   -111716.24   -110881.43    782.17569    177271.89  0.060134044 
   68900    289.24942   -111686.62   -110880.46   -349.35011    177192.84  0.060160871 
   69000    290.78784   -111687.32   -110876.88    199.80602    177127.85  0.060182942 
   69100    300.33787   -111708.64   -110871.59    635.05273    177108.01  0.060189687 
   69200     304.6894   -111715.37   -110866.18    17.426685    177115.79  0.060187043 
   69300    291.04009    -111673.5   -110862.36    326.61429    177126.43  0.060183427 
   69400    301.22045   -111697.86   -110858.34    -488.0071    177121.75  0.060185015 
   69500    298.83649   -111688.26   -110855.38    443.68267    177069.15  0.060202895 
   69600    294.98818   -111674.95    -110852.8    213.41938    177032.01  0.060215523 
   69700    287.97572   -111654.14   -110851.54    507.93974    177006.33  0.060224261 
   69800    304.79735   -111699.77   -110850.28   -30.792359    176982.77  0.060232278 
   69900    302.23588   -111691.53   -110849.18   -63.848002    176930.19  0.060250178 
   70000    305.29198   -111698.73   -110847.86   -277.12536    176870.18  0.060270621 
   70100    299.70657   -111683.25   -110847.95    165.48796    176819.54  0.060287881 
   70200    304.52784   -111696.18   -110847.44    52.932325    176776.85  0.060302441 
   70300    297.71344   -111674.33   -110844.59    199.58218    176744.92  0.060313334 
   70400    309.60976   -111703.61   -110840.71    406.02253     176737.9  0.060315731 
   70500    305.17585   -111686.95   -110836.41   -251.05762    176732.34  0.060317629 
   70600    301.65681   -111670.75   -110830.02    19.532551    176715.16   0.06032349 
   70700    306.89267   -111680.05   -110824.73   -66.021026    176695.05  0.060330356 
   70800    305.41909      -111670   -110818.78    145.07632    176666.69   0.06034004 
   70900    306.97597   -111669.24   -110813.68    179.61509    176623.36  0.060354846 
   71000     314.1885   -111684.39   -110808.73    187.71131    176558.79  0.060376917 
   71100    307.38175   -111661.07   -110804.38    370.03063    176438.16  0.060418196 
   71200    312.36768   -111672.63   -110802.04   -307.81583    176299.64  0.060465668 
   71300    313.61375   -111676.96    -110802.9    287.63122    176172.14  0.060509429 
   71400    299.16276   -111640.27   -110806.48   -128.19967    176083.23   0.06053998 
   71500    307.48312   -111669.79   -110812.82    24.167759    176006.26  0.060566455 
   71600    306.16136   -111676.78   -110823.49    130.53034    175928.04  0.060593385 
   71700    302.42132   -111679.95   -110837.09    670.92038     175854.7  0.060618655 
   71800    296.62166   -111678.14   -110851.44   -288.45856    175782.26  0.060643637 
   71900    292.75802   -111680.77   -110864.84   -144.78387     175720.5  0.060664952 
   72000    296.56829   -111701.12   -110874.57     10.79624    175676.36  0.060680193 
   72100    299.62196   -111714.92   -110879.85   -133.03941    175651.02  0.060688948 
   72200    296.77609   -111710.35   -110883.22    239.54021    175621.47  0.060699158 
   72300     306.5069   -111738.21   -110883.96   -351.85074    175580.13   0.06071345 
   72400    295.76239   -111706.92   -110882.61    159.05618    175523.38  0.060733081 
   72500    298.55776   -111711.62   -110879.52   -420.08864    175459.29  0.060755264 
   72600    303.86885   -111720.71   -110873.81   -110.35505    175343.53  0.060795372 
   72700     303.0432   -111711.55   -110866.95    522.91808    175208.58  0.060842199 
   72800    308.28599   -111717.86   -110858.65    62.805191     175089.7  0.060883508 
   72900    299.49084   -111684.47   -110849.77   -159.39477    174980.89  0.060921369 
   73000    299.69113   -111674.51   -110839.26    446.77917    174882.97  0.060955482 
   73100    309.62603   -111689.79   -110826.84   -293.84182    174788.34  0.060988482 
   73200    306.73117   -111669.31   -110814.44   -377.78732    174688.31  0.061023403 
   73300    303.72207   -111646.04   -110799.55    -413.9393    174582.46  0.061060404 
   73400    304.00591   -111631.58    -110784.3    218.01054    174462.79  0.061102285 
   73500     322.2973    -111670.1   -110771.84   -117.07308    174334.25  0.061147338 
   73600    319.47674   -111652.97   -110762.57   -85.224209       174186  0.061199379 
   73700    321.79903   -111653.28   -110756.41   -121.58715    174038.66  0.061251193 
   73800    303.95419   -111603.12   -110755.99    51.499017    173910.34  0.061296385 
   73900    317.32969   -111645.56   -110761.15   -7.0620298    173756.68  0.061350594 
   74000     313.9206   -111652.33   -110777.42   -46.969032    173588.28  0.061410109 
   74100    304.91099    -111659.8   -110809.99   -584.59932    173461.36  0.061455042 
   74200    301.00221   -111676.84   -110837.93    -111.2382    173369.96  0.061487442 
   74300     293.3001   -111666.63   -110849.19   -243.78516    173290.55   0.06151562 
   74400    302.21592   -111696.22   -110853.92   -116.63345    173226.04  0.061538526 
   74500    300.85287   -111695.57   -110857.08    475.51286    173173.08  0.061557349 
   74600    296.37419   -111687.34   -110861.33    56.778709    173131.24  0.061572222 
   74700     299.0025   -111698.03    -110864.7    144.08682    173064.44   0.06159599 
   74800    297.80102   -111698.62   -110868.63    569.34834    172979.06  0.061626392 
   74900    297.22646   -111698.51   -110870.12    -144.8962     172866.7  0.061666449 
   75000    302.03576   -111711.87   -110870.08   -171.93361    172743.69  0.061710359 
   75100    302.68483      -111713    -110869.4    125.69875    172658.93  0.061740655 
   75200     300.6567   -111704.97   -110867.02   -369.01651    172572.59  0.061771545 
   75300    293.39541   -111682.94   -110865.23   -209.09247    172486.97  0.061802208 
   75400     289.9382   -111671.25   -110863.17   -307.23327     172421.7  0.061825603 
   75500    304.68827   -111709.01   -110859.83   -160.25703     172391.1  0.061836575 
   75600    299.25284   -111690.08   -110856.05    373.49973    172374.13  0.061842664 
   75700    298.76325   -111684.38   -110851.71   -205.19441    172347.15  0.061852346 
   75800    291.36908   -111660.07   -110848.01    606.38676    172276.44  0.061877732 
   75900    296.04064   -111668.25   -110843.17    151.10285    172206.14  0.061902991 
   76000    303.56287   -111683.72   -110837.67    -361.4148    172136.08  0.061928188 
   76100    299.35997   -111668.18   -110833.85    151.15576    172068.08   0.06195266 
   76200    296.11496   -111655.06   -110829.78     -77.3246    171989.04  0.061981131 
   76300    300.56072   -111666.18    -110828.5   -375.11502    171895.66  0.062014801 
   76400    316.80896   -111712.22   -110829.25   -83.460848    171781.62  0.062055971 
   76500    306.52538   -111686.87   -110832.57   -284.82368     171659.7  0.062100047 
   76600     303.5002   -111685.57    -110839.7   -435.51372    171522.56    0.0621497 
   76700    296.39504   -111678.28   -110852.21   -426.33069    171371.95  0.062204319 
   76800    284.69967   -111662.97   -110869.49   -163.23429    171211.54  0.062262598 
   76900    297.97319   -111713.97    -110883.5   -415.61738    171055.01  0.062319573 
   77000    302.74785   -111737.95   -110894.17    -59.53912    170898.81  0.062376533 
   77100    294.40039   -111720.68   -110900.16    4.7386951    170767.29  0.062424576 
   77200    296.57861   -111731.06   -110904.47    -220.1575    170655.81  0.062465352 
   77300    296.49954   -111730.99   -110904.62    153.76341    170546.45  0.062505409 
   77400    296.94238   -111730.86   -110903.27   -454.68134    170445.74   0.06254234 
   77500    292.80393   -111716.92   -110900.86    371.09708    170344.92  0.062579358 
   77600    297.98427   -111726.43   -110895.93    174.91508     170266.4  0.062608214 
   77700    295.42948    -111711.9   -110888.52   -293.98478    170218.73  0.062625747 
   77800    295.39681   -111702.68    -110879.4   -124.53161    170211.44   0.06262843 
   77900    299.49538   -111704.34   -110869.63   -230.06512    170230.39  0.062621459 
   78000    289.71854   -111666.52   -110859.06   -728.89603    170241.06  0.062617535 
   78100    311.80312   -111716.66   -110847.65   -467.19937    170225.23  0.062623359 
   78200    299.62846   -111672.31   -110837.23    261.80792    170209.33  0.062629208 
   78300    305.79059   -111680.01   -110827.76    195.20103     170229.6  0.062621748 
   78400    308.60233   -111681.58   -110821.49   -497.61511    170292.08  0.062598773 
   78500    296.73393   -111646.21   -110819.19     154.5299    170329.84  0.062584898 
   78600    304.95025   -111670.06   -110820.15    737.50717     170370.6  0.062569924 
   78700    311.27947   -111690.71   -110823.15   -414.88933    170412.42  0.062554569 
   78800    308.65284   -111688.99   -110828.75   -166.05395    170439.54  0.062544613 
   78900    302.54399   -111683.49   -110840.28    235.81229    170449.35  0.062541016 
   79000    302.03967   -111708.48   -110866.68   -266.75152    170418.08   0.06255249 
   79100    285.79365   -111695.78   -110899.26    186.31181    170356.21  0.062575209 
   79200    287.20123   -111716.78   -110916.34    171.54144     170256.9   0.06261171 
   79300    300.79564    -111762.7   -110924.36    501.44131    170121.51  0.062661538 
   79400    285.55763   -111723.91   -110928.05    137.26602    169979.16  0.062714015 
   79500    279.17581   -111705.68    -110927.6    54.070281    169821.59  0.062772203 
   79600    294.39436   -111743.16   -110922.67    181.07442    169647.58  0.062836589 
   79700    300.57276   -111750.96   -110913.25   -43.741829    169475.52  0.062900386 
   79800    296.20376   -111727.98   -110902.45   -182.72783    169300.84  0.062965282 
   79900    283.35722   -111679.76   -110890.03    230.33436    169117.76  0.063033446 
   80000    299.75084   -111712.77   -110877.35    178.46105    168948.94   0.06309643 
   80100    298.39178   -111696.99   -110865.35    267.33916    168814.47  0.063146694 
   80200    308.81539   -111715.56   -110854.87   -124.60083    168721.66  0.063181426 
   80300    293.72107   -111665.81    -110847.2   -184.73886    168666.84  0.063201963 
   80400    295.69788   -111666.06   -110841.93    271.68161    168610.07  0.063223243 
   80500    314.73065   -111715.61   -110838.44     83.73926    168575.78  0.063236104 
   80600    302.82927   -111681.94   -110837.93   -251.94999    168566.25  0.063239678 
   80700    305.41325   -111688.94   -110837.73    26.064254    168580.33  0.063234395 
   80800    310.46001   -111707.28   -110842.01   -40.118737    168608.26  0.063223921 
   80900    307.74058   -111705.49    -110847.8   -144.03145    168643.87  0.063210571 
   81000    297.33733   -111686.76   -110858.06    304.31739    168661.22  0.063204068 
   81100    299.96296   -111705.28   -110869.27   -8.0798568    168693.56  0.063191952 
   81200     291.1017   -111692.22    -110880.9   -205.00282    168723.48  0.063180748 
   81300    299.13983   -111724.68   -110890.96    657.89736     168730.9  0.063177968 
   81400    284.54791   -111692.47   -110899.42    29.395203    168742.96  0.063173453 
   81500     297.3609   -111734.11   -110905.34     146.7128    168781.37  0.063159075 
   81600    294.69927   -111731.12   -110909.77     416.2496    168818.89  0.063145041 
   81700     296.6335    -111737.7   -110910.96    93.868405     168845.9  0.063134938 
   81800    294.87631   -111732.37   -110910.53   -62.314076    168876.48  0.063123505 
   81900     290.5711   -111714.89   -110905.05    500.83897    168909.56  0.063111144 
   82000    303.42458   -111739.13   -110893.47    102.92743     168938.3  0.063100406 
   82100     305.9369   -111725.51   -110872.85   -741.59108    168944.18  0.063098211 
   82200    302.24325   -111691.31   -110848.94    -114.8768    168905.27  0.063112744 
   82300    299.77837   -111667.87   -110832.37    233.62925     168829.8  0.063140957 
   82400    311.13682   -111690.31   -110823.15    -184.1162    168780.14  0.063159535 
   82500    316.50905   -111703.38   -110821.25    329.61188    168763.88  0.063165621 
   82600    307.21349   -111677.09   -110820.87   -227.46691    168775.64  0.063161221 
   82700    296.17343   -111647.25    -110821.8   -79.638082    168785.02  0.063157711 
   82800    306.54981   -111678.68   -110824.31   -111.36231    168798.52  0.063152659 
   82900    313.45938   -111702.67   -110829.04    254.68626    168821.35  0.063144119 
   83000    305.65724   -111688.22   -110836.34    10.281513    168832.89  0.063139802 
   83100    299.91036   -111681.09   -110845.23    49.203703    168819.27  0.063144897 
   83200    312.93443   -111727.35   -110855.18    589.17826    168783.96  0.063158107 
   83300    307.14134   -111720.76   -110864.73    11.352279    168761.02  0.063166691 
   83400    305.22984   -111725.92   -110875.23   -270.22937    168762.86  0.063166002 
   83500    310.31063   -111749.86      -110885   -84.255136    168766.66  0.063164581 
   83600    293.69564   -111711.98   -110893.43    -347.9744    168749.65  0.063170949 
   83700    288.72815   -111705.33   -110900.63   -69.294088    168733.99  0.063176811 
   83800    298.58237   -111737.44   -110905.28   -404.51491    168727.66  0.063179183 
   83900    290.89889   -111718.52   -110907.77    235.02181    168714.48  0.063184117 
   84000    298.78201   -111741.02    -110908.3   -113.29735    168689.79  0.063193364 
   84100    291.36162   -111718.45   -110906.41    398.33883    168664.83  0.063202716 
   84200    288.51906   -111707.82    -110903.7   -218.19458    168648.56  0.063208815 
   84300    297.48192   -111728.02   -110898.92    270.45893    168623.31   0.06321828 
   84400    296.41062   -111719.05   -110892.93    270.34506    168594.26  0.063229172 
   84500      287.433   -111688.03   -110886.94    240.45812    168555.54  0.063243697 
   84600     285.8768   -111677.72   -110880.97    180.12039    168485.74  0.063269896 
   84700     297.8327   -111704.96   -110874.89   -89.706636    168395.55  0.063303784 
   84800    304.09602   -111718.38   -110870.85    571.41516    168317.87     0.063333 
   84900    301.98701   -111709.36   -110867.71   -214.12703    168271.32  0.063350518 
   85000    302.39419   -111709.89    -110867.1   -201.18681    168222.45  0.063368924 
   85100    304.25385   -111714.53   -110866.56    866.07403    168149.74  0.063396324 
   85200    309.00729   -111727.43    -110866.2   -86.814994    168078.87  0.063423054 
   85300    292.53608   -111682.72   -110867.41    19.180055    168018.16  0.063445972 
   85400    293.00831   -111682.58   -110865.94    9.1888047    167959.98  0.063467947 
   85500    300.72835   -111702.35   -110864.21   -37.707059    167889.33  0.063494658 
   85600    302.20874    -111704.8   -110862.53    27.480337    167827.77  0.063517947 
   85700    303.14296   -111707.03   -110862.16   -150.59627    167767.63  0.063540715 
   85800    301.02558   -111699.41   -110860.44   -156.24588    167702.85  0.063565262 
   85900    302.51198   -111700.43   -110857.31    68.105477    167642.85  0.063588012 
   86000    294.93487    -111674.3    -110852.3    466.98849    167591.79  0.063607382 
   86100    309.65339   -111707.45   -110844.43   -49.202709    167571.83  0.063614962 
   86200     310.0911   -111699.87   -110835.63   -129.40423    167563.63  0.063618075 
   86300    316.67545   -111709.13   -110826.53   -7.4351284     167558.1  0.063620172 
   86400    303.94781   -111669.07   -110821.95   -193.17403     167545.9  0.063624805 
   86500     312.9953      -111693   -110820.66    320.83672    167512.06  0.063637659 
   86600    307.57869   -111680.56   -110823.32    -501.1448    167476.72  0.063651087 
   86700    311.56079   -111697.07   -110828.73    288.29585    167449.79  0.063661325 
   86800    300.80607   -111677.07    -110838.7   -295.05732    167462.41  0.063656526 
   86900    297.84014   -111681.02   -110850.92    544.91263    167479.57  0.063650005 
   87000      297.056   -111693.25   -110865.34    63.986849    167506.07  0.063639936 
   87100    302.85481   -111722.03   -110877.95   -272.95652    167519.86  0.063634698 
   87200    294.53767   -111709.93   -110889.03   -179.13848    167521.72  0.063633988 
   87300     301.4206   -111735.12   -110895.04    122.24288    167490.55  0.063645832 
   87400    297.16654    -111728.5   -110900.28    304.54397    167413.56  0.063675102 
   87500     300.6453   -111740.95   -110903.04    624.03394    167345.69  0.063700926 
   87600    287.98979    -111706.1   -110903.45    -261.5872       167298  0.063719083 
   87700    298.89906   -111737.05      -110904   -41.626486     167249.9  0.063737408 
   87800    300.85797   -111740.86   -110902.35    134.70008    167191.36  0.063759727 
   87900    293.38421   -111716.47   -110898.79    306.62219    167138.24  0.063779991 
   88000    294.64395   -111715.41   -110894.23   -247.82782    167109.06  0.063791127 
   88100     304.3379   -111734.49   -110886.28     -141.869    167110.61  0.063790536 
   88200    295.61667   -111701.09   -110877.19    209.73117    167131.15  0.063782697 
   88300    313.05933   -111735.25   -110862.74   -497.29929    167173.21   0.06376665 
   88400    301.26013   -111686.24   -110846.61    490.92405    167202.03  0.063755658 
   88500    309.25321    -111692.1    -110830.2    86.643828    167240.38  0.063741037 
   88600     302.3629   -111659.47   -110816.77    185.21658    167266.07  0.063731246 
   88700    305.93148   -111661.51   -110808.86    105.10368    167295.46  0.063720051 
[...]
  978700    286.52173   -111859.69   -111061.13    108.11048    13302.081   0.80138404 
  978800    289.99323   -111877.97   -111069.74    1244.4213    13296.183   0.80173949 
  978900    284.84327   -111867.92   -111074.05    34.303855    13288.519   0.80220193 
  979000    293.15674   -111889.23   -111072.18   -4034.7931    13280.553   0.80268309 
  979100    284.71108   -111859.57   -111066.06   -5958.4259    13271.566   0.80322665 
  979200    287.64026   -111855.51   -111053.84    3678.1232    13261.581    0.8038314 
  979300     290.3381   -111848.12   -111038.93    -696.3289    13251.261   0.80445742 
  979400    311.35946   -111889.83   -111022.06   -180.46066    13240.482   0.80511235 
  979500     294.1169   -111830.63   -111010.91   -6678.2691    13230.795   0.80570182 
  979600     296.2187   -111830.06   -111004.49   -5165.6398    13222.096   0.80623188 
  979700    305.02455   -111850.44   -111000.32     3345.049    13214.466    0.8066974 
  979800    294.29902    -111817.6   -110997.37   -8941.3352    13207.391   0.80712951 
  979900     307.1121   -111850.79   -110994.85    1253.5675    13199.616   0.80760499 
  980000    302.29296   -111834.48   -110991.97   -2548.3038    13191.733   0.80808753 
  980100    306.36516   -111844.67   -110990.81   -1022.0309    13184.402   0.80853686 
  980200    295.66831   -111815.24   -110991.19   -3508.9571    13176.917   0.80899615 
  980300     292.6451   -111807.16   -110991.55    2130.6174    13166.922   0.80961031 
  980400    302.54939   -111835.92    -110992.7   -194.82139     13154.23   0.81039143 
  980500    296.83491   -111819.82   -110992.52   -7774.6811    13140.027   0.81126736 
  980600    298.20772   -111823.25   -110992.13    -3245.795    13124.326   0.81223796 
  980700    297.19405   -111818.49   -110990.19    1477.2935    13109.162   0.81317747 
  980800    314.41188   -111862.69    -110986.4    1013.4095    13094.528   0.81408625 
  980900    299.40357   -111816.19   -110981.73   -2396.5899    13080.003   0.81499026 
  981000    306.37084   -111832.13   -110978.26   -3966.8124    13066.846   0.81581087 
  981100    305.75671   -111827.12   -110974.96   -945.18885    13053.734   0.81663035 
  981200    307.40523   -111830.48   -110973.73     -253.333    13037.571   0.81764275 
  981300     307.6651   -111829.17   -110971.68    9786.5193    13017.928   0.81887649 
  981400    299.15759   -111806.28   -110972.51    1524.8569    12999.526   0.82003569 
  981500    312.18661   -111844.58    -110974.5    4597.8612    12981.517    0.8211733 
  981600    310.46591   -111844.65   -110979.36    -2839.952    12965.891   0.82216293 
  981700    299.24562   -111821.19   -110987.18    833.01079     12951.31   0.82308857 
  981800    290.93163   -111809.67   -110998.83    4598.9932    12938.849   0.82388126 
  981900    300.11307   -111848.58   -111012.15    901.26678    12928.745   0.82452514 
  982000    291.84265   -111837.32   -111023.93    4668.4038    12917.939   0.82521488 
  982100    294.00675   -111851.86   -111032.44    1300.2188    12905.499   0.82601032 
  982200    294.39542      -111857    -111036.5    468.92553    12893.941   0.82675073 
  982300     296.6968   -111863.92   -111037.01    1407.9359    12884.187   0.82737667 
  982400      287.877   -111837.01   -111034.68    4301.4347    12875.578   0.82792984 
  982500    288.81514   -111835.76   -111030.82   -1480.4995    12867.918   0.82842272 
  982600    298.69812   -111858.15   -111025.66    -918.2885    12861.368   0.82884463 
  982700    308.03644   -111876.23   -111017.72    4123.4637    12856.309   0.82917076 
  982800     295.9256   -111832.34   -111007.57    2585.1946    12851.382   0.82948866 
  982900    287.14534   -111795.33   -110995.04   -396.19989    12847.258   0.82975488 
  983000    300.19347   -111817.07   -110980.42   -516.41004    12844.118   0.82995777 
  983100    310.60874   -111833.41   -110967.72    2451.6071    12841.434   0.83013123 
  983200    312.85946   -111830.44   -110958.49    2453.3509    12840.414    0.8301972 
  983300    301.00163   -111794.86   -110955.95   -8059.3347    12838.747   0.83030496 
  983400    308.02877    -111813.9    -110955.4   -1742.7848    12835.466    0.8305172 
  983500    310.36381    -111822.8    -110957.8   -314.34757     12831.52    0.8307726 
  983600    307.07406   -111817.88   -110962.04    4528.1612    12826.463   0.83110016 
  983700    303.42851   -111811.49   -110965.81   -3300.9387    12822.589   0.83135125 
  983800     308.7396   -111830.29   -110969.82   -8727.1859    12817.949   0.83165218 
  983900    303.27424   -111820.09   -110974.85   -7447.7524    12811.897   0.83204502 
  984000    305.29872   -111830.07   -110979.19   -506.96667    12805.324   0.83247212 
  984100      297.568   -111813.28   -110983.95    315.85024    12799.815   0.83283042 
  984200    304.76394   -111837.07   -110987.68   -2398.5037    12795.555   0.83310771 
  984300    298.19682   -111821.44   -110990.35    -715.3027    12794.029   0.83320708 
  984400    294.33596   -111813.94   -110993.61    5554.4707     12792.85   0.83328388 
  984500    298.12164    -111828.4   -110997.52    3301.4711    12792.552   0.83330326 
  984600    311.28186   -111868.56      -111001   -2676.6321    12791.722   0.83335735 
  984700    300.59667   -111844.12   -111006.34   -3456.5735    12790.365   0.83344576 
  984800     290.3573   -111822.78   -111013.53   -9571.5886     12788.89   0.83354187 
  984900    293.64788   -111840.82   -111022.41    4817.5904    12784.738   0.83381255 
  985000     300.8631   -111871.67   -111033.15    -68.32286    12780.433   0.83409347 
  985100    296.43693   -111870.24   -111044.05     243.2527    12776.965   0.83431983 
  985200     285.0836   -111850.65   -111056.11   -3286.6407    12773.813   0.83452572 
  985300    282.13514    -111851.5   -111065.18   -1425.8188    12768.419   0.83487823 
  985400    280.86676   -111851.69    -111068.9   -8440.4634    12760.114   0.83542162 
  985500    284.82373   -111863.49   -111069.67    4130.2392    12751.256   0.83600197 
  985600    289.38469   -111871.33    -111064.8     1239.818    12745.234   0.83639699 
  985700    283.26119      -111844   -111054.53   -2282.4997      12741.2   0.83666178 
  985800    294.39052   -111854.92   -111034.44   -1440.2517    12736.088   0.83699763 
  985900    304.04558   -111859.09   -111011.69   -2175.0441    12730.195   0.83738506 
  986000    297.40213   -111824.67    -110995.8   -154.86987    12723.407   0.83783181 
  986100    299.61544   -111821.99   -110986.94   -6975.0282    12716.136   0.83831092 
  986200     293.5604   -111801.63   -110983.46     2710.348    12708.289   0.83882854 
  986300    309.29352   -111844.66   -110982.64    1889.5524     12699.15    0.8394322 
  986400    302.48877   -111826.23   -110983.18    1485.3353    12689.006   0.84010327 
  986500    306.72226   -111840.41   -110985.56    2109.4388    12679.564   0.84072885 
  986600    311.26232   -111858.28   -110990.77    3476.9635    12671.353   0.84127366 
  986700    301.36126   -111838.05   -110998.14   -4286.0852    12663.511   0.84179462 
  986800    298.51165    -111838.7   -111006.73   -1286.7723     12654.08     0.842422 
  986900    294.55656   -111837.27   -111016.32    5946.5464    12641.974   0.84322871 
  987000     294.2052   -111844.69   -111024.73   -2196.4593    12629.088   0.84408906 
  987100    292.56688   -111847.49   -111032.09    5138.7667    12619.046   0.84476081 
  987200    297.12822   -111863.96   -111035.85   -389.26696    12614.192   0.84508588 
  987300    293.83558   -111856.64    -111037.7   -4283.4455    12611.095   0.84529341 
  987400    289.53113   -111843.21   -111036.27   -1188.9224    12608.269   0.84548287 
  987500     300.6584    -111870.6   -111032.65    4955.1113    12605.692   0.84565573 
  987600    300.93193   -111864.74   -111026.02   -3169.5177    12604.444   0.84573943 
  987700    292.98674   -111833.67    -111017.1   -4147.3894     12603.12   0.84582828 
  987800    296.84623   -111829.37   -111002.04    5284.1278    12600.508   0.84600362 
  987900    302.22462   -111826.22    -110983.9   -3215.4977    12597.238   0.84622323 
  988000    308.62734   -111828.06   -110967.89   -6087.2764    12594.286   0.84642155 
  988100    309.31107   -111819.79   -110957.72    3100.1039    12591.933   0.84657971 
  988200    306.60484   -111808.42   -110953.89   -1360.3615      12590.7   0.84666263 
  988300    304.78398   -111803.25    -110953.8    -5997.867    12588.382   0.84681852 
  988400    298.68604   -111788.18   -110955.72   -1639.5212    12583.814   0.84712594 
  988500    299.53425   -111792.57   -110957.75   -1185.3456     12578.17   0.84750607 
  988600    301.69957   -111802.33   -110961.48   -3147.8973    12570.418   0.84802869 
  988700    309.71715   -111827.33   -110964.13   -4025.6093    12562.002   0.84859685 
  988800    313.71137    -111843.5   -110969.17    4641.8659    12556.679   0.84895656 
  988900    302.51731    -111819.2   -110976.07    3095.8189    12553.147   0.84919543 
  989000    298.70369   -111815.85   -110983.35    -3553.819    12548.484   0.84951104 
  989100    297.04569   -111818.66   -110990.78   -2433.5805    12542.626    0.8499078 
  989200    299.71093   -111833.81    -110998.5    3079.9572    12538.244   0.85020483 
  989300    305.95535   -111858.06   -111005.35   -1800.1095    12536.014   0.85035604 
  989400     298.7009   -111844.07   -111011.57    1434.9005    12534.766    0.8504407 
  989500    297.01634    -111842.2    -111014.4   -3107.8011    12534.322   0.85047086 
  989600    294.08539   -111836.42   -111016.79    1650.8692    12532.838   0.85057152 
  989700    293.44406   -111835.14   -111017.29    332.17208    12530.939   0.85070043 
  989800     295.2438   -111839.79   -111016.93    64.944931    12530.258   0.85074671 
  989900    293.18233   -111833.69   -111016.57    6527.1558    12530.558   0.85072629 
  990000     294.7029   -111836.76   -111015.41   -6740.1925     12532.44   0.85059856 
  990100    298.41401   -111846.22   -111014.53    657.18682     12532.13   0.85061961 
  990200    295.09083   -111834.26   -111011.83    4257.4972    12530.229   0.85074865 
  990300    293.01345   -111823.93   -111007.28   -2701.9776    12529.379   0.85080639 
  990400    300.18448   -111837.45   -111000.82    4505.8104    12530.027   0.85076237 
  990500     305.8888    -111846.3   -110993.77   -900.86025     12530.92   0.85070173 
  990600    303.23225    -111832.3   -110987.18    4219.2053    12530.058   0.85076023 
  990700    310.15965   -111845.06   -110980.63   -464.13777    12528.763   0.85084818 
  990800    297.75873   -111805.87      -110976   -10391.945    12529.097   0.85082551 
  990900    305.80209   -111825.26   -110972.98   -1387.5065    12528.689   0.85085325 
  991000    293.55868   -111789.84   -110971.68    1245.6238    12528.648   0.85085603 
  991100    312.60054   -111843.26   -110972.03    3328.1475    12528.544    0.8508631 
  991200     303.0623   -111819.22   -110974.57   -1553.8066     12528.02   0.85089863 
  991300    296.05361   -111806.44   -110981.32   -296.83208    12527.056   0.85096414 
  991400    295.22488   -111817.07   -110994.26    7973.7141    12527.433    0.8509385 
  991500    299.67036   -111845.45   -111010.25   -592.08921    12527.784   0.85091468 
  991600    300.03494   -111864.64   -111028.42    860.98119     12526.18   0.85102365 
  991700    291.45879   -111855.88   -111043.57    605.68436    12524.013   0.85117093 
  991800    292.37525   -111868.41   -111053.54    3475.3231    12522.959   0.85124253 
  991900    286.67434   -111857.64   -111058.66    1982.0837    12525.163   0.85109274 
  992000     287.1439   -111857.96   -111057.68   -3335.1442    12529.911   0.85077027 
  992100    297.64251   -111883.85    -111054.3     -2204.06    12536.695   0.85030985 
  992200    291.34008   -111860.49   -111048.51   -1120.8172    12542.675   0.84990448 
  992300    291.54748   -111853.24   -111040.68   -3794.7391    12548.056   0.84954001 
  992400    299.31174   -111864.02   -111029.82    2891.8542    12554.478   0.84910542 
  992500    295.36232   -111841.12   -111017.93    2160.8282    12561.882   0.84860497 
  992600    297.16673    -111833.9   -111005.68   -7764.6396    12571.043   0.84798652 
  992700    301.61719    -111835.9   -110995.27    -890.8795      12581.1   0.84730867 
  992800    312.76555    -111859.5    -110987.8    4304.4816    12593.706   0.84646053 
  992900    313.14445   -111856.19   -110983.44    -6578.888    12608.828   0.84544538 
  993000    316.01547   -111862.77   -110982.02     2889.918    12624.455   0.84439888 
  993100    308.29867   -111842.22   -110982.97   -1297.2142    12642.137   0.84321783 
  993200    302.49168      -111829   -110985.94   -5762.8064    12658.198   0.84214792 
  993300    293.79399   -111806.91   -110988.09   -7836.0526    12673.481   0.84113239 
  993400    306.55972   -111845.33   -110990.93    566.36143    12685.947   0.84030584 
  993500    304.81163   -111841.96   -110992.44   -4325.1153    12696.376   0.83961562 
  993600    300.14389   -111830.93   -110994.41    3651.0621    12705.525   0.83901101 
  993700    296.49568   -111824.95    -110998.6    2477.1674    12718.025   0.83818638 
  993800    297.02663   -111828.79   -111000.96   -6060.8526    12734.022   0.83713342 
  993900    295.22388   -111825.69   -111002.89   -78.080147    12747.881   0.83622329 
  994000    292.97128   -111822.76   -111006.23    8969.2547    12760.882   0.83537136 
  994100    294.49081   -111832.17    -111011.4   -481.93255    12775.279   0.83442992 
  994200    302.35428   -111859.99   -111017.31   -407.15207    12788.936   0.83353886 
  994300    296.84203   -111850.63   -111023.32   -9079.1316    12800.734   0.83277061 
  994400    295.04135   -111854.82   -111032.53    2329.5155    12811.047   0.83210025 
  994500    291.58526   -111851.74   -111039.07    -1204.161    12822.138   0.83138047 
  994600    290.01329    -111852.9   -111044.61    1408.9538     12834.04   0.83060946 
  994700    297.62884   -111877.58   -111048.07    24.769508    12845.757   0.82985188 
  994800    290.33184   -111858.91   -111049.74   -1652.8144    12856.828   0.82913728 
  994900    293.65388   -111867.09   -111048.66   -95.533853    12868.584   0.82837982 
  995000    293.51173    -111860.5   -111042.46   -2598.6359    12880.351   0.82762306 
  995100    297.62203   -111863.23   -111033.74    717.12888    12892.428   0.82684779 
  995200    290.41885   -111831.76   -111022.34    579.47395    12905.117   0.82603475 
  995300    297.10121   -111836.39   -111008.35    1776.3272    12920.182   0.82507163 
  995400    293.54939   -111811.27   -110993.13    3014.5896    12936.007   0.82406228 
  995500    303.35916    -111826.6   -110981.12   -100.18157    12953.097   0.82297503 
  995600    288.27532   -111776.14    -110972.7    1535.0046    12970.757    0.8218545 
  995700      301.384   -111806.35   -110966.38    2867.3934    12989.058   0.82069655 
  995800    300.15282   -111800.58   -110964.04    4979.0296    13006.926   0.81956916 
  995900    309.51934   -111825.12   -110962.48   -3734.5995    13024.485   0.81846422 
  996000    309.54652   -111825.52   -110962.79   -5868.2544    13041.295   0.81740928 
  996100    294.96147   -111786.49   -110964.41   -6545.6533    13055.478   0.81652128 
  996200     300.3314   -111803.04      -110966    161.82544    13065.107   0.81591948 
  996300    306.23032   -111821.95   -110968.47    317.71764    13071.382   0.81552779 
  996400    304.51695   -111823.91    -110975.2    1410.7539    13079.771   0.81500472 
  996500    305.51817   -111836.68   -110985.19   -909.94832    13091.288   0.81428771 
  996600    295.90959   -111823.44   -110998.72    5436.7037     13102.13    0.8136139 
  996700    302.35639   -111856.22   -111013.53     1400.017    13109.992   0.81312597 
  996800    303.57296   -111872.74   -111026.67    5502.9859    13115.417   0.81278968 
  996900    289.30351   -111842.28   -111035.98    3191.2682    13121.134   0.81243554 
  997000    290.50038   -111849.93   -111040.28   -888.81766     13127.45   0.81204464 
  997100    292.16971   -111854.88   -111040.59   -1302.2421    13134.178   0.81162865 
  997200    283.84511   -111829.84   -111038.74   -5073.3599    13141.158   0.81119754 
  997300    287.07557   -111834.05   -111033.96   -1030.9909    13147.634   0.81079797 
  997400    302.43534   -111871.71   -111028.81    120.08093     13154.41   0.81038032 
  997500    300.05489   -111859.76   -111023.49   -5463.9281    13161.461   0.80994623 
  997600    300.04906   -111853.51   -111017.26    878.75681     13168.45   0.80951631 
  997700    291.29464   -111822.96    -111011.1   -2986.4194    13175.262   0.80909779 
  997800    296.58093   -111831.11   -111004.52   -2526.2494    13181.533   0.80871285 
  997900    304.46439    -111847.1   -110998.54    1535.8457    13188.233   0.80830201 
  998000    302.35128   -111835.01   -110992.34    4360.0235    13194.641   0.80790944 
  998100    311.83712   -111855.29   -110986.19   -4873.7504    13200.435   0.80755483 
  998200    298.79045   -111815.64    -110982.9    2368.4902    13206.911   0.80715884 
  998300    293.09121   -111795.56   -110978.69   -1440.9904    13213.009   0.80678636 
  998400    300.54033   -111812.31   -110974.68    1116.6168    13218.636   0.80644291 
  998500     311.7446   -111842.08   -110973.23   -3153.8843     13224.86   0.80606338 
  998600    304.91736   -111822.92   -110973.09    269.15844    13231.155   0.80567987 
  998700    296.06755   -111799.25   -110974.09   -3364.2573    13235.464   0.80541755 
  998800    297.40876   -111806.57   -110977.67    2194.5208    13237.848   0.80527253 
  998900    295.22472   -111807.85   -110985.04   -712.73389     13239.72   0.80515867 
  999000    294.72107   -111815.75   -110994.35   -1810.9714    13242.386   0.80499655 
  999100    298.84937   -111838.04   -111005.13   -5877.3398    13245.485   0.80480824 
  999200    300.87335   -111855.01   -111016.46    3425.8075    13247.867    0.8046635 
  999300    288.74655   -111831.18   -111026.42    1964.9405    13247.764   0.80466976 
  999400     282.4277   -111820.02   -111032.88   -4572.4578     13246.79   0.80472898 
  999500    290.38178   -111845.31      -111036   -2936.4479    13245.568    0.8048032 
  999600     288.8541    -111841.4   -111036.35   -1445.0879    13244.556   0.80486465 
  999700    286.18608   -111829.44   -111031.82   -2569.9209    13243.024   0.80495778 
  999800    291.17253    -111833.7   -111022.18   -9679.3214    13240.628   0.80510348 
  999900    292.28972   -111824.49   -111009.86    -2873.447    13233.928   0.80551109 
 1000000    296.96771   -111824.46   -110996.79   -5932.3127    13223.191   0.80616513 
Loop time of 89340.8 on 1 procs for 1000000 steps with 936 atoms

Performance: 0.242 ns/day, 99.268 hours/ns, 11.193 timesteps/s
99.9% CPU use with 1 MPI tasks x no OpenMP threads

MPI task timing breakdown:
Section |  min time  |  avg time  |  max time  |%varavg| %total
---------------------------------------------------------------
Pair    | 73521      | 73521      | 73521      |   0.0 | 82.29
Neigh   | 260.49     | 260.49     | 260.49     |   0.0 |  0.29
Comm    | 19.026     | 19.026     | 19.026     |   0.0 |  0.02
Output  | 1.5581     | 1.5581     | 1.5581     |   0.0 |  0.00
Modify  | 15537      | 15537      | 15537      |   0.0 | 17.39
Other   |            | 1.195      |            |       |  0.00

Nlocal:    936 ave 936 max 936 min
Histogram: 1 0 0 0 0 0 0 0 0 0
Nghost:    7262 ave 7262 max 7262 min
Histogram: 1 0 0 0 0 0 0 0 0 0
Neighs:    423838 ave 423838 max 423838 min
Histogram: 1 0 0 0 0 0 0 0 0 0

Total # of neighbors = 423838
Ave neighs/atom = 452.818
Neighbor list builds = 10000
Dangerous builds not checked

Please see the log.cite file for references relevant to this simulation

Total wall time: 24:49:00
