LAMMPS (09 Jan 2020)
package omp 0
WARNING: OpenMP support not enabled during compilation; using 1 thread only. (../fix_omp.cpp:125)
units			real
atom_style		charge
read_data d1200000_lmps.dat
  orthogonal box = (-15 -15 -15) to (50 50 50)
  1 by 1 by 1 MPI processor grid
  reading atoms ...
  936 atoms
  read_data CPU = 0.000520945 secs
reset_timestep		0

pair_style              reax/c lmp_control lgvdw yes
pair_coeff              * * ffield C H O N

neighbor		2.5 bin
neigh_modify		delay 0 every 5 check no

fix			qeq all qeq/reax 1 0.0 10.0 1e-6 reax/c
fix			bonds all reax/c/bonds 500 bonds.reaxc
fix			npt all npt temp 300 300 100 iso 1.0 1.0 2000
fix 1 all reax/c/species 10 10 100 species.out cutoff 1 4 0.25
WARNING: Resetting reneighboring criteria for fix reax/c/species (../fix_reaxc_species.cpp:97)


thermo			100
thermo_style            custom step temp pe etotal press vol density
thermo_modify           flush yes

timestep		0.25

dump			1 all custom 1000 dump/dump.reax.npt.* id type xu yu zu
restart			500 restart.npt300 restart.npt300
run 1000000
Last active /omp style is pair_style reax/c/omp
Neighbor list info ...
  update every 100 steps, delay 0 steps, check no
  max neighbors/atom: 2000, page size: 100000
  master list distance cutoff = 12.5
  ghost atom cutoff = 12.5
  binsize = 6.25, bins = 11 11 11
  2 neighbor lists, perpetual/occasional/extra = 2 0 0
  (1) pair reax/c/omp, perpetual
      attributes: half, newton off, ghost, omp
      pair build: half/bin/newtoff/ghost/omp
      stencil: half/ghost/bin/3d/newtoff
      bin: standard
  (2) fix qeq/reax/omp, perpetual, copy from (1)
      attributes: half, newton off, ghost
      pair build: copy
      stencil: none
      bin: none
Per MPI rank memory allocation (min/avg/max) = 78.68 | 78.68 | 78.68 Mbytes
Step Temp PotEng TotEng Press Volume Density 
       0            0   -111479.67   -111479.67   -81.246011       274625  0.038816842 
     100    139.66121   -111855.17   -111465.93    46.779433    274594.73  0.038821121 
     200    168.85523   -111915.56   -111444.96   -112.62729    274508.41  0.038833329 
     300    173.03497    -111903.8   -111421.54    40.335701    274389.38  0.038850175 
     400     166.4218   -111857.48   -111393.65    142.66228    274230.25  0.038872718 
     500    184.19838   -111875.43   -111362.06    46.976886    274057.59  0.038897209 
     600     195.1565   -111871.89   -111327.97    166.74351    273841.93  0.038927841 
     700    191.02382   -111825.47   -111293.08   -268.31655    273592.52  0.038963329 
     800    204.32461   -111825.85   -111256.38   -179.04909    273262.54  0.039010379 
     900    209.93468   -111802.27   -111217.17     40.84906    272871.59   0.03906627 
    1000    214.50018   -111776.06   -111178.24     305.4586     272485.3  0.039121653 
    1100    212.20734   -111728.89   -111137.46    198.93513    272134.67  0.039172059 
    1200    227.58051   -111731.19   -111096.91    66.604697    271809.87  0.039218868 
    1300    239.12417   -111720.27   -111053.82    155.96209    271557.39  0.039255331 
    1400    240.86459   -111683.35   -111012.05   -203.22737    271416.54  0.039275702 
    1500    259.22185   -111693.05   -110970.58    49.801337    271328.59  0.039288434 
    1600    254.85509   -111639.19    -110928.9    83.911947    271301.95  0.039292292 
    1700    250.53438   -111585.71   -110887.46    107.15575     271345.9  0.039285927 
    1800    282.28291   -111633.66   -110846.92     376.7747    271474.47  0.039267322 
    1900    269.21274   -111558.43   -110808.12     -305.596    271691.97  0.039235887 
    2000    289.26884   -111578.26   -110772.05   -212.55656    271963.62  0.039196696 
    2100    276.68436   -111508.79   -110737.65   -292.89952    272264.68  0.039153354 
    2200    296.05875    -111530.2   -110705.07    163.24182     272571.3   0.03910931 
    2300    296.42897   -111501.45   -110675.28   -305.70916    272857.55  0.039068281 
    2400    302.91306    -111493.2   -110648.97    154.40728    273117.14  0.039031147 
    2500    323.82295   -111528.61   -110626.09    26.877504    273395.17  0.038991455 
    2600     316.9207   -111491.65   -110608.38    82.135683    273726.51  0.038944256 
    2700    296.52267   -111420.75   -110594.32    109.16838    274102.02  0.038890904 
    2800    307.60083   -111442.42   -110585.11   -273.00238    274478.86  0.038837509 
    2900    304.57392   -111429.49   -110580.62   -411.53703    274831.12   0.03878773 
    3000    318.48999   -111468.35    -110580.7   -381.19632    275133.51    0.0387451 
    3100    312.46329    -111457.5   -110586.65    129.20019    275349.39  0.038714723 
    3200    310.40968   -111460.82   -110595.69   -15.165161    275459.11  0.038699302 
    3300      306.213   -111460.27   -110606.84   -353.14149    275512.85  0.038691754 
    3400    293.21937    -111436.5   -110619.28   -187.41194    275534.19  0.038688757 
    3500    295.15412   -111455.47   -110632.85   -44.752693    275533.81  0.038688811 
    3600    302.63197   -111489.28   -110645.83    35.565306    275487.79  0.038695274 
    3700    304.39725   -111506.52   -110658.15    285.80531    275401.63  0.038707379 
    3800    294.02925   -111488.37   -110668.89    133.56721    275315.89  0.038719434 
    3900    292.68527   -111494.14   -110678.41    169.63132    275226.62  0.038731993 
    4000    296.74985   -111512.67   -110685.61   -42.990462    275124.65  0.038746348 
    4100    291.87301   -111503.41   -110689.94   -139.71253    274978.45  0.038766948 
    4200    301.65716   -111533.66   -110692.92    283.88164    274802.79  0.038791728 
    4300    289.85812   -111498.92   -110691.07    5.0772337    274649.64   0.03881336 
    4400    292.00309   -111501.31   -110687.48   -104.49153    274533.72  0.038829749 
    4500    287.12459   -111482.68   -110682.45    38.970445    274433.33  0.038843953 
    4600    290.14007   -111484.25   -110675.61   -153.75535    274343.28  0.038856704 
    4700    293.84018   -111485.88   -110666.93    306.34754    274244.41  0.038870711 
    4800    307.90808   -111514.94   -110656.78    72.108388    274177.95  0.038880134 
    4900     309.0794    -111507.5   -110646.08    92.065031    274111.34  0.038889581 
    5000    302.73572   -111481.26   -110637.52   -130.22663    274036.31  0.038900229 
    5100    308.29866   -111490.28   -110631.03    -44.84546    273948.34   0.03891272 
    5200    290.66909      -111436   -110625.89   -60.539848    273869.59  0.038923911 
    5300    296.86722   -111446.18   -110618.79    20.048376     273834.1  0.038928955 
    5400    300.32731   -111448.58   -110611.55    46.355675    273863.69  0.038924749 
    5500    285.89867   -111401.75   -110604.93   -290.19736    273937.36   0.03891428 
    5600    305.01783   -111449.41   -110599.31   -155.44479    273990.21  0.038906775 
    5700    309.77539   -111459.36      -110596   -30.897638    274015.97  0.038903118 
    5800    311.29835   -111461.14   -110593.53    199.60026    274069.58  0.038895508 
    5900    300.95519   -111432.36   -110593.58   -120.15625    274178.58  0.038880045 
    6000    310.30018   -111461.13    -110596.3    121.97034    274324.72  0.038859333 
    6100    298.97822   -111433.99   -110600.72   -250.72642    274477.95  0.038837638 
    6200    296.25725   -111433.73   -110608.05   -13.695459    274609.72  0.038819002 
    6300     300.2415   -111453.65   -110616.86    253.67655    274711.23  0.038804658 
    6400    301.16983   -111464.92   -110625.55   -247.96761    274804.27   0.03879152 
    6500    305.43648   -111486.77    -110635.5     -55.3824    274909.72  0.038776641 
    6600    302.33011   -111488.21    -110645.6    139.42252    274973.72  0.038767616 
    6700    299.88192   -111491.82   -110656.03    40.680293    274976.81   0.03876718 
    6800     301.6406   -111505.81   -110665.12   -562.08178    274956.01  0.038770112 
    6900     290.6512   -111484.96    -110674.9   -5.4770809    274919.95  0.038775197 
    7000     280.8131   -111466.23   -110683.59   -438.09347    274929.35  0.038773872 
    7100      292.416    -111504.4   -110689.42    209.20383    274911.41  0.038776403 
    7200    288.69255   -111497.43   -110692.83   -134.24688    274855.44  0.038784299 
    7300    292.65925   -111506.87   -110691.21    23.001082    274760.86  0.038797648 
    7400    297.82322   -111516.76   -110686.71    147.32037    274645.96   0.03881388 
    7500    295.85291   -111502.96    -110678.4    -121.6973    274544.64  0.038828204 
    7600    296.51511   -111493.71    -110667.3    174.70719    274402.15  0.038848367 
    7700    293.36033   -111471.88   -110654.27   -75.766385    274255.19  0.038869184 
    7800     301.6041   -111480.52   -110639.93     144.0344     274103.2  0.038890737 
    7900    305.86306    -111479.8   -110627.35   -137.93946     273984.7  0.038907557 
    8000    312.76739   -111490.02   -110618.32    125.53419    273863.71  0.038924746 
    8100    315.74992   -111491.03   -110611.02   -168.53171    273746.47  0.038941417 
    8200    311.35035   -111475.47   -110607.72    100.82584    273621.48  0.038959205 
    8300    318.85362   -111495.74   -110607.08   -78.471121    273502.22  0.038976193 
    8400    303.05381   -111453.45   -110608.82    191.40795    273406.63   0.03898982 
    8500    314.08282   -111487.94   -110612.58    59.277705    273343.08  0.038998885 
    8600    289.31011   -111423.72   -110617.39    387.06487    273324.66  0.039001514 
    8700    304.60999   -111473.61   -110624.64       109.14    273380.96  0.038993481 
    8800    302.45561   -111475.78   -110632.82    121.06772    273428.62  0.038986684 
    8900    308.22788   -111501.18   -110642.13    200.90767    273425.93  0.038987069 
    9000    299.26572   -111485.94   -110651.87    13.486257     273380.3  0.038993575 
    9100     295.8834   -111486.16   -110661.52     407.3921       273327  0.039001179 
    9200    295.48855   -111494.19   -110670.65    286.14116    273317.73  0.039002502 
    9300    280.84533   -111462.53    -110679.8     4.851716    273323.97  0.039001611 
    9400     299.1469   -111520.65   -110686.91   -76.871303    273325.88  0.039001339 
    9500    293.12181   -111508.06   -110691.11    184.00671    273365.06  0.038995749 
    9600    297.96576   -111526.25   -110695.81    140.46116    273448.36   0.03898387 
    9700    298.93834   -111529.85   -110696.69   -140.54501    273525.58  0.038972865 
    9800    296.15876   -111520.83   -110695.42   -164.37528    273584.72   0.03896444 
    9900    285.88472   -111489.96   -110693.18   -77.543645    273635.58  0.038957198 
   10000    287.35438   -111488.72   -110687.85    220.11409    273727.23  0.038944153 
   10100     304.8469   -111530.17   -110680.55   -218.10269    273838.98  0.038928262 
   10200    297.28803   -111499.81   -110671.25   -112.22792    273954.55  0.038911839 
   10300    295.76699    -111487.9   -110663.58   -104.97156    274026.59  0.038901609 
   10400    304.30965   -111502.93    -110654.8   -344.12092    274106.39  0.038890284 
   10500    307.85624   -111504.72   -110646.71    105.31367    274177.88  0.038880143 
   10600    311.23915   -111506.06   -110638.62   -9.5168198    274287.41  0.038864617 
   10700    300.80251   -111469.66   -110631.31   -135.14032    274395.66  0.038849286 
   10800    297.12623    -111451.8   -110623.69   -78.575295    274461.59  0.038839953 
   10900    305.60535   -111468.67   -110616.93   -206.78254    274483.57  0.038836843 
   11000    303.93015   -111458.33   -110611.26    383.06762    274478.42  0.038837572 
   11100    300.21707   -111444.35   -110607.63    237.02925    274513.06  0.038832671 
   11200    308.71919   -111466.28   -110605.86    32.126905    274575.76  0.038823804 
   11300    313.22746   -111478.82   -110605.84   -266.52039    274642.35  0.038814391 
   11400    310.38625   -111474.05   -110608.98    131.18006    274708.01  0.038805112 
   11500    309.91536   -111478.33   -110614.58   -177.36246    274771.33  0.038796171 
   11600    295.13524   -111444.11   -110621.55   -12.689262    274816.11  0.038789849 
   11700      306.957   -111483.81    -110628.3    314.17352    274853.38  0.038784589 
   11800    291.61103   -111448.96   -110636.22    78.511685    274921.31  0.038775006 
   11900     295.6569   -111467.32   -110643.31      150.774    275058.29  0.038755696 
   12000    301.63742   -111489.21   -110648.53    173.36919    275211.09  0.038734178 
   12100    299.04923   -111485.76   -110652.29   -38.323509    275313.59  0.038719758 
   12200     289.7455   -111463.24    -110655.7    115.22252    275299.29  0.038721769 
   12300    283.58671   -111448.48    -110658.1   -261.27971    275298.39  0.038721895 
   12400    296.55875   -111485.22   -110658.69   -127.93568    275286.07  0.038723628 
   12500    301.85417   -111500.29   -110659.01   -7.0856652       275278  0.038724763 
   12600    297.57868   -111486.47    -110657.1   -110.05036    275300.01  0.038721668 
   12700      306.091   -111507.22   -110654.12   -110.24046    275321.56  0.038718636 
   12800    299.18339   -111483.84      -110650   -154.71487    275313.78  0.038719731 
   12900    300.66493   -111482.11   -110644.14    155.53371    275328.86  0.038717609 
   13000    302.69599   -111481.26   -110637.63   -3.9717812    275392.03  0.038708729 
   13100    296.56822   -111456.11   -110629.56   -102.77559    275443.46  0.038701501 
   13200    298.88134   -111452.48   -110619.48    126.75027    275440.65  0.038701896 
   13300    303.12053    -111453.4   -110608.59   -291.55723    275418.31  0.038705035 
   13400    307.90748   -111457.85    -110599.7      103.928    275373.16  0.038711382 
   13500    307.78713   -111451.25   -110593.43   -178.83076     275292.4  0.038722738 
   13600    304.74104   -111439.71   -110590.38   -116.62278    275184.99  0.038737852 
   13700    309.28211   -111452.35   -110590.37    -91.35067     275035.2   0.03875895 
   13800    313.22135   -111468.31   -110595.34    113.78387    274902.17  0.038777705 
   13900    304.02251   -111452.62   -110605.29    204.99924    274793.27  0.038793072 
   14000    302.85975   -111467.01   -110622.92    268.24474    274690.79  0.038807545 
   14100    299.86527   -111480.73   -110644.99    -47.54245    274591.61  0.038821562 
   14200    314.53177   -111538.42    -110661.8   -426.31372    274456.23  0.038840712 
   14300    301.95888   -111514.01   -110672.43   -411.57761    274260.68  0.038868406 
   14400    286.77981    -111478.5   -110679.22   -33.380448    274045.18  0.038898971 
   14500    287.17961   -111481.96   -110681.58    169.93437    273854.53  0.038926051 
   14600     289.3022   -111487.78   -110681.48    138.06208    273712.91  0.038946191 
   14700    289.12732   -111485.36   -110679.55   -509.16786    273592.69  0.038963305 
   14800    297.47229   -111503.24   -110674.17    -84.72575    273443.91  0.038984505 
   14900    295.17348   -111490.01   -110667.34   -258.21393    273248.12  0.039012438 
   15000    305.79165    -111510.2   -110657.94   -50.621536    273033.86  0.039043052 
   15100    304.66735   -111497.88   -110648.76   -56.349267    272800.01  0.039076521 
   15200    293.51321   -111457.41   -110639.37    262.63353    272557.83  0.039111242 
   15300    300.13475   -111466.41   -110629.92   -12.090226    272361.53  0.039139432 
   15400    307.73412   -111479.14   -110621.46   -224.93523    272232.61  0.039157966 
   15500    300.94381   -111453.53   -110614.78    -293.8303    272132.93  0.039172309 
   15600    299.64461   -111445.81   -110610.68   -206.90923    272049.96  0.039184256 
   15700    304.42355   -111458.57   -110610.13    232.61944    271969.26  0.039195883 
   15800    311.35939   -111478.07   -110610.29     74.78296     271914.2  0.039203821 
   15900    297.54077   -111442.67   -110613.41    371.87166    271877.73  0.039209079 
   16000     307.7856   -111476.15   -110618.33    510.84431    271863.18  0.039211178 
   16100    294.97443   -111449.46   -110627.35   -245.67404    271856.35  0.039212162 
   16200    307.90454   -111501.27   -110643.12    522.00402    271835.17  0.039215217 
   16300    293.89244   -111482.98   -110663.88    114.01838    271807.77   0.03921917 
   16400    285.29303   -111476.99   -110681.87   -172.97328    271757.45  0.039226433 
   16500    282.69974   -111479.48   -110691.58   -189.32275    271639.92  0.039243405 
   16600    287.27334   -111495.97   -110695.32    110.87859    271463.75  0.039268873 
   16700    299.20066   -111528.61   -110694.72    -245.9007    271251.94  0.039299535 
   16800    299.59771   -111525.87   -110690.87   -421.48579    271003.64  0.039335543 
   16900    290.38061   -111493.41    -110684.1    241.77104    270736.71  0.039374325 
   17000     288.9559   -111481.13   -110675.79    207.46675    270480.33  0.039411648 
   17100    298.06124   -111495.84   -110665.13    166.00536    270237.62  0.039447044 
   17200    297.30183   -111483.59   -110654.99    -185.7843    269964.15  0.039487003 
   17300    297.66122   -111475.91   -110646.31   -283.34506    269668.68  0.039530268 
   17400    300.28669   -111476.06   -110639.15   -21.599917    269376.91  0.039573085 
   17500    297.99032    -111464.8   -110634.28 -0.056227554    269123.56  0.039610338 
   17600    296.59549   -111458.11   -110631.48    -34.07573    268857.79  0.039649494 
   17700    302.64849   -111472.14   -110628.64    209.74568    268591.71  0.039688772 
   17800    310.98882   -111494.86   -110628.12    65.487594    268313.93  0.039729862 
   17900    316.89101   -111511.72   -110628.52   -33.300197    268031.08  0.039771789 
   18000    304.45667    -111478.8   -110630.27    -112.4516    267730.52  0.039816437 
   18100    305.98177   -111485.21   -110632.43    299.25502    267421.49  0.039862449 
   18200    300.94481   -111474.17   -110635.42    60.618693    267142.74  0.039904043 
   18300    300.19254   -111476.06   -110639.41    123.48068    266896.21  0.039940902 
   18400    296.69866   -111471.57   -110644.65    246.60571    266641.35  0.039979078 
   18500    302.41583   -111492.82   -110649.97    153.02966    266366.75  0.040020292 
   18600    305.15894   -111507.55   -110657.05    532.74409    266088.64  0.040062121 
   18700    294.87273   -111490.76   -110668.93    143.48081    265870.04  0.040095061 
   18800    291.20092   -111495.96   -110684.37    4.1336557    265681.66  0.040123489 
   18900    286.83217   -111500.85   -110701.44     -38.9199    265498.06  0.040151236 
   19000    288.94965   -111519.98   -110714.67   -72.939793    265310.66  0.040179597 
   19100    287.74115   -111524.46   -110722.51    180.07734    265131.34  0.040206772 
   19200      283.828   -111516.77   -110725.73    15.135964    264944.88  0.040235068 
   19300    277.11437   -111496.52   -110724.19   -367.11906    264762.77  0.040262743 
   19400    284.40864   -111511.88   -110719.22     144.9978    264563.46  0.040293076 
   19500    286.35934      -111508    -110709.9   -42.966371    264337.13  0.040327575 
   19600    294.21594   -111515.91   -110695.91     4.530914    264128.65  0.040359405 
   19700    293.14156   -111498.88   -110681.88    19.054279    263925.69  0.040390442 
   19800    291.86684   -111483.24   -110669.79    -154.6199     263687.3  0.040426958 
   19900    292.05746    -111475.4   -110661.42   -118.31717    263452.77  0.040462947 
   20000    299.83298    -111489.8   -110654.15   -1.8935486    263243.08  0.040495178 
   20100    299.24462   -111479.56   -110645.55    16.820236    263026.54  0.040528516 
   20200    303.72495   -111485.31   -110638.82   -147.19588    262794.99  0.040564226 
   20300    298.33741   -111463.98    -110632.5   -4.9315824    262571.79  0.040598707 
   20400    288.37465   -111430.05   -110626.33    165.13608    262326.95  0.040636601 
   20500    298.85761   -111451.54    -110618.6    171.29127    262089.69  0.040673387 
   20600    306.73674   -111466.23   -110611.34   -361.42613    261839.77  0.040712209 
   20700    298.64332   -111437.83    -110605.5    -128.8869    261560.96  0.040755606 
   20800    305.07477   -111450.41   -110600.15   -198.71407     261229.3  0.040807349 
   20900    300.27998   -111433.23   -110596.33   -44.846998    260847.03  0.040867153 
   21000    306.17645   -111448.26   -110594.93    182.32183    260437.83  0.040931362 
   21100    312.75741   -111467.19   -110595.52   -84.715022    260053.67  0.040991829 
   21200    307.82041   -111456.09   -110598.17    219.11402    259698.35  0.041047914 
   21300    310.21747   -111466.52   -110601.93    259.43958    259380.26  0.041098253 
   21400    305.79063   -111461.76   -110609.51    25.113708    259082.56  0.041145477 
   21500    303.86279    -111467.1   -110620.22    103.58902    258739.85  0.041199975 
   21600    303.03191   -111478.88   -110634.31   -105.55265    258361.63  0.041260289 
   21700     299.6774    -111483.6   -110648.38   -10.778548    257992.38  0.041319342 
   21800    285.54877   -111456.67   -110660.83   -66.493265    257624.63  0.041378323 
   21900    287.45464   -111470.23   -110669.08    143.52431    257242.47  0.041439795 
   22000    294.30835   -111493.53   -110673.27    59.509321    256856.32  0.041502095 
   22100     305.5899   -111526.76   -110675.06   -136.89633    256425.81  0.041571772 
   22200     293.4342   -111492.77   -110674.96    208.80197    255932.58  0.041651888 
   22300    291.58232   -111484.68   -110672.03   -163.34864    255407.99  0.041737439 
   22400     290.5988   -111477.75   -110667.84   -393.41308    254886.28  0.041822868 
   22500    295.54958   -111485.98   -110662.27   -140.62928    254404.31  0.041902102 
   22600    305.04041    -111504.8   -110654.64    -248.6106    253974.16   0.04197307 
   22700     303.3086   -111490.51   -110645.17   -450.31951    253561.55  0.042041371 
   22800    296.56854   -111458.43   -110631.87   -455.61275    253117.58  0.042115112 
   22900    303.68121   -111459.22   -110612.84   -188.13429    252652.38  0.042192658 
   23000    308.44676   -111453.36    -110593.7   -5.6650839    252198.13  0.042268653 
   23100    305.32226   -111430.69   -110579.74    324.06128    251773.37  0.042339963 
   23200    315.20247   -111451.96   -110573.47   -7.8007032    251385.13  0.042405353 
   23300     314.3779   -111449.49    -110573.3     51.01892    251014.69  0.042467934 
   23400    313.12677      -111450    -110577.3   -76.076434    250658.17  0.042528338 
   23500    309.26135   -111446.54   -110584.61    58.431288    250308.31   0.04258778 
   23600    308.24917   -111451.43   -110592.32    295.28834    250004.21  0.042639583 
   23700    309.51449   -111463.83   -110601.19   -137.09553    249743.36   0.04268412 
   23800    307.87505   -111469.54   -110611.47   -108.85671    249466.33   0.04273152 
   23900    301.13618   -111459.59   -110620.31    273.57308    249163.66  0.042783428 
   24000    304.26094   -111477.29    -110629.3    73.457104    248863.97  0.042834949 
   24100    318.87515   -111527.02    -110638.3    42.224692    248594.37  0.042881403 
   24200    297.96691    -111477.4   -110646.95   -76.822228    248321.87   0.04292846 
   24300    297.30063    -111482.9    -110654.3   -486.45329     248060.8  0.042973639 
   24400    302.77667   -111504.31   -110660.46    99.298002    247769.57  0.043024151 
   24500    301.19784   -111503.46      -110664     -209.561    247445.26  0.043080539 
   24600     290.6261   -111476.62   -110666.63    17.574027    247079.93  0.043144237 
   24700    293.79577   -111485.73   -110666.91   -98.773367    246691.17  0.043212229 
   24800    293.42518   -111481.99    -110664.2    116.57924    246307.44  0.043279551 
   24900    305.06013   -111509.89   -110659.67    -214.2643     245942.7  0.043343735 
   25000    293.16557    -111470.1   -110653.03   -318.16743    245566.68  0.043410104 
   25100    290.03261   -111451.87   -110643.53   -241.91172    245150.82  0.043483743 
   25200    306.26201   -111483.43   -110629.86    528.72061    244733.24  0.043557938 
   25300     296.7336   -111441.59   -110614.58   -302.22778    244387.87  0.043619494 
   25400    303.24172   -111445.42   -110600.27     300.9184     244095.2  0.043671795 
   25500    315.36035    -111466.7   -110587.77   -440.63963    243819.64  0.043721151 
   25600    314.51053   -111457.12   -110580.56   -189.91427    243504.69    0.0437777 
   25700    308.52193   -111438.23   -110578.36    -296.0525     243152.7  0.043841073 
   25800    311.66871   -111449.99   -110581.35    -527.4218    242772.43  0.043909745 
   25900    314.25569    -111463.2   -110587.36    11.535727    242386.64  0.043979633 
   26000    311.36402   -111462.47   -110594.68   -82.377741    242025.67  0.044045226 
   26100    308.43011    -111461.6   -110601.98    144.47705    241701.92  0.044104223 
   26200    312.68354   -111480.74   -110609.27   -305.72484    241369.72  0.044164925 
   26300    310.83184   -111483.67   -110617.36    20.015304    241004.83  0.044231791 
   26400    300.64691   -111463.76   -110625.84   -185.28329    240640.14  0.044298825 
   26500    303.31703   -111479.09   -110633.73   -184.94965    240304.57  0.044360685 
   26600    306.75317   -111497.13   -110642.19   -269.20259    239998.59  0.044417241 
   26700    310.01784   -111514.19   -110650.15    1.0570796    239689.54  0.044474512 
   26800    301.67821   -111499.86   -110659.06    127.89551    239378.03  0.044532389 
   26900    288.16321   -111469.75   -110666.62   -12.386854    238994.97  0.044603765 
   27000    298.17876   -111501.65   -110670.61    -40.67492    238590.35  0.044679406 
   27100    298.78532   -111506.75   -110674.02    108.70242    238181.57  0.044756088 
   27200    304.57546    -111525.4   -110676.53   -287.80455    237782.04  0.044831289 
   27300    292.44589   -111493.56    -110678.5    122.87611    237366.84  0.044909707 
   27400    298.11339   -111506.73   -110675.87   -227.62166    236945.41  0.044989584 
   27500    294.01522   -111490.17   -110670.74     -16.5332    236533.57  0.045067917 
   27600    298.84522   -111496.06   -110663.16   -137.53977    236132.05   0.04514455 
   27700    307.54063   -111506.93    -110649.8   -27.705481    235747.01  0.045218284 
   27800    300.44026   -111471.62   -110634.27    119.48734    235384.71  0.045287883 
   27900    297.68535   -111448.39   -110618.72    67.778064    235059.08  0.045350622 
   28000    297.87765   -111436.47   -110606.27    -301.0763    234748.73  0.045410577 
   28100    299.92631   -111432.86   -110596.95   -58.862972    234432.35  0.045471862 
   28200    302.13572   -111433.92   -110591.85    -0.703983    234126.48  0.045531267 
   28300    313.83892   -111466.58   -110591.89   -160.52011    233831.86  0.045588636 
   28400    312.45179   -111465.27   -110594.45   -147.98452    233578.17  0.045638149 
   28500    306.29164   -111454.26    -110600.6   -92.699756    233341.82  0.045684375 
   28600    299.39203   -111442.62    -110608.2    113.84684    233122.84  0.045727289 
   28700    302.44368   -111458.73    -110615.8    373.34362     232942.4   0.04576271 
   28800    313.83931   -111497.49    -110622.8   -135.13694    232814.82  0.045787788 
   28900    313.00595   -111503.04   -110630.67    215.30566    232719.74  0.045806493 
   29000    307.04344   -111492.67   -110636.92   -116.25468    232618.47  0.045826436 
   29100     308.1409   -111500.23   -110641.43   -107.14817    232458.53  0.045857966 
   29200    295.27916   -111468.82   -110645.86    76.217105    232268.97  0.045895392 
   29300    302.65688   -111493.31   -110649.79   -110.16731     232060.2  0.045936681 
   29400    313.18528   -111525.92   -110653.05   -42.659097    231854.69  0.045977398 
   29500    296.05466    -111480.1   -110654.98    10.478198    231641.66  0.046019681 
   29600     291.1147   -111468.22   -110656.86   -536.22902    231434.34  0.046060906 
   29700    293.35743   -111474.93   -110657.33    5.5695201    231211.28  0.046105344 
   29800    296.70251   -111484.15   -110657.22   -173.20976    230972.03    0.0461531 
   29900    303.36885   -111501.35   -110655.85   -76.451909    230743.12  0.046198888 
   30000    298.64487   -111484.75   -110652.41     101.7443       230538  0.046239992 
   30100    304.63126   -111499.01   -110649.99    177.24947    230330.13  0.046281723 
   30200    301.85554   -111486.21   -110644.93    234.25483    230091.95  0.046329632 
   30300    309.45786   -111498.95   -110636.47   -287.13143    229853.27   0.04637774 
   30400    303.65038   -111472.58   -110626.29   -49.723781    229624.25  0.046423995 
   30500    307.34219   -111471.08    -110614.5   -257.53174    229411.69   0.04646701 
   30600    303.90685   -111449.54   -110602.54    117.80387    229190.49  0.046511857 
   30700    312.25487   -111462.35   -110592.08    43.496963    228941.34  0.046562475 
   30800    309.67591   -111448.44   -110585.35   -242.19744    228694.14  0.046612806 
   30900    315.22736   -111461.02   -110582.47     384.0434    228475.23  0.046657466 
   31000    313.60083   -111458.28   -110584.25     377.1264    228304.62  0.046692334 
   31100    312.50668   -111460.28   -110589.31   -325.51044    228170.77  0.046719723 
   31200    302.82934   -111442.87   -110598.87    227.10693    228034.45  0.046747654 
   31300     305.8262   -111465.96    -110613.6    17.594976       227908  0.046773591 
   31400     320.6944   -111525.69   -110631.89    151.34806    227799.99  0.046795767 
   31500    314.08339   -111522.55   -110647.18    286.84807    227733.85  0.046809358 
   31600    304.88903   -111506.63   -110656.89    74.066386    227689.93  0.046818388 
   31700    304.18497   -111509.15   -110661.37   -4.8800079    227668.63  0.046822768 
   31800    298.99687   -111498.06   -110664.74    373.28241    227630.59  0.046830593 
   31900    282.63752   -111453.78   -110666.06   -142.65271    227573.64  0.046842312 
   32000    289.50638   -111473.19   -110666.32     159.8888    227500.81  0.046857307 
   32100    295.51899   -111488.66   -110665.03   -79.569332    227403.68  0.046877322 
   32200    303.50559   -111509.02   -110663.14    -104.7905    227281.93  0.046902433 
   32300    296.44619   -111485.94   -110659.73    109.60219    227116.29  0.046936639 
   32400    297.87368   -111486.27   -110656.08   -287.59093    226919.57  0.046977328 
   32500    299.55409   -111485.37   -110650.49    -309.4345    226720.47  0.047018584 
   32600    305.45685   -111493.88   -110642.56    28.825081    226502.55  0.047063821 
   32700    302.23936   -111478.54   -110636.18   -362.54349    226279.22  0.047110271 
   32800     307.6686   -111485.78   -110628.29    298.15942       226039  0.047160337 
   32900    298.62438   -111451.34   -110619.06    93.050365    225809.08  0.047208356 
   33000    311.90862   -111479.45   -110610.14   -239.68088    225583.32  0.047255602 
   33100    310.19165   -111467.06   -110602.54    208.36812    225384.05  0.047297382 
   33200    308.72872   -111456.97   -110596.53    253.66459    225210.74  0.047333779 
   33300    318.67382   -111481.33   -110593.17    208.18539    225041.69  0.047369335 
   33400    314.08709   -111468.24   -110592.86    335.51602     224886.2  0.047402088 
   33500     308.1374    -111457.6   -110598.81    263.94559    224776.03  0.047425321 
   33600    299.28779   -111444.76   -110610.63    71.988707    224723.57  0.047436391 
   33700     311.1683   -111494.93   -110627.69   -124.98191    224682.37   0.04744509 
   33800    303.77306   -111494.79   -110648.16    181.69834    224639.36  0.047454175 
   33900    299.36985   -111498.39   -110664.02   -419.13543    224579.57  0.047466807 
   34000    299.40892   -111507.22   -110672.75   -169.61063    224485.48  0.047486704 
   34100     303.1583   -111524.18   -110679.27    45.050104    224378.29  0.047509389 
   34200     298.5088   -111514.46    -110682.5    279.14067    224253.19  0.047535892 
   34300    288.64066   -111487.51   -110683.05   -8.7823402     224104.1  0.047567517 
   34400    296.57289   -111508.34   -110681.77    76.706264     223945.5  0.047601205 
   34500    298.25666   -111509.57   -110678.31    52.615429    223804.21  0.047631255 
   34600     285.0345   -111467.96   -110673.55   -574.82267    223658.85   0.04766221 
   34700    295.33612   -111491.18   -110668.06    27.293312    223448.78  0.047707019 
   34800    309.95776   -111522.88   -110659.01    238.40481    223210.47  0.047757954 
   34900    298.38553    -111481.4   -110649.78   -494.54943    222974.33  0.047808532 
   35000    296.51391   -111468.57   -110642.17   -219.01131    222736.52  0.047859576 
   35100    308.92775   -111495.97   -110634.98    286.24646    222524.62  0.047905149 
   35200    308.81112   -111488.37    -110627.7   -191.79357    222335.74  0.047945847 
   35300    309.60182   -111483.94   -110621.06   -87.317587    222175.42  0.047980445 
   35400    303.52978   -111461.59   -110615.63   -237.12179    222004.59  0.048017364 
   35500    307.33383   -111467.92   -110611.37   -4.5414608    221822.76  0.048056725 
   35600     303.1724   -111452.13   -110607.18    313.59742    221606.79  0.048103559 
   35700    307.54781    -111459.1   -110601.94    96.486597    221375.96  0.048153718 
   35800    306.48955   -111452.58   -110598.38    27.406815    221157.88    0.0482012 
   35900    311.61822   -111465.62   -110597.12     16.21749     220983.4  0.048239258 
   36000    309.71151   -111461.49   -110598.31   -214.36844    220838.45  0.048270921 
   36100    292.53161   -111418.38   -110603.07    215.40602    220707.05   0.04829966 
   36200    309.77413   -111474.24   -110610.88   -7.2475942    220612.12  0.048320443 
   36300    302.18598   -111463.27   -110621.06   -359.52197    220529.36  0.048338576 
   36400    302.14651   -111474.86   -110632.76   -333.73576    220463.63  0.048352989 
   36500    299.56449   -111478.13   -110643.23    137.25283    220413.07   0.04836408 
   36600    297.85891   -111482.11   -110651.96    308.28417    220402.99  0.048366291 
   36700    284.27418   -111452.07   -110659.78    495.74336    220435.64  0.048359128 
   36800    298.23715      -111498    -110666.8    74.351651    220506.89  0.048343503 
   36900    297.08259   -111499.83   -110671.84     191.7535    220568.06  0.048330096 
   37000    290.50535   -111485.09   -110675.43    333.62444    220597.67  0.048323609 
   37100    288.28847    -111480.2   -110676.72    322.05076    220597.58  0.048323629 
   37200    296.68717   -111503.78   -110676.89   -278.71532    220552.33  0.048333542 
   37300    284.23895   -111465.95   -110673.76   -390.06456    220441.74   0.04835779 
   37400    294.93144   -111490.22   -110668.23   -376.95803    220287.54  0.048391641 
   37500    304.03693   -111505.92   -110658.55   -239.96499    220103.54  0.048432094 
   37600    321.77322   -111541.02   -110644.22    341.35868    219934.68   0.04846928 
   37700    299.95466   -111462.31   -110626.32   -102.41385    219756.56  0.048508565 
   37800    295.31896   -111433.96   -110610.89   -171.06865    219515.76  0.048561778 
   37900    299.14836   -111433.19   -110599.45    213.81354    219229.28  0.048625236 
   38000    316.32324   -111474.47   -110592.86    330.60827    218938.35  0.048689849 
   38100    302.20081   -111432.91   -110590.66   -160.90699    218694.76  0.048744082 
   38200    305.41301   -111442.71    -110591.5   -7.4157337    218467.92  0.048794694 
   38300    299.36103   -111428.74    -110594.4    473.96842    218246.41  0.048844218 
   38400    303.66148   -111445.91   -110599.59   -378.20317    218038.97  0.048890688 
   38500    301.05046   -111444.35   -110605.31    166.50719    217836.44  0.048936143 
   38600    302.26136   -111454.53   -110612.11    231.81257    217644.53  0.048979293 
   38700    304.11837   -111466.79   -110619.19   -120.46523    217472.37  0.049018067 
   38800    301.16529      -111466   -110626.64   -105.65765    217304.96  0.049055832 
   38900    292.98844   -111448.82   -110632.25   -46.050256    217170.53  0.049086196 
   39000    295.41451   -111460.08   -110636.74    105.47387    217091.51  0.049104064 
   39100     299.2739   -111474.47   -110640.38   -339.91211    217023.73  0.049119401 
   39200    295.52366   -111466.07   -110642.43      380.776    216941.79  0.049137952 
   39300    302.50381   -111486.33   -110643.24    64.677263    216886.43  0.049150496 
   39400    299.01505   -111477.39   -110644.01    175.80538    216835.85   0.04916196 
   39500     305.4574   -111496.49   -110645.16    275.53406    216791.11  0.049172105 
   39600    295.24035   -111470.21   -110647.36   -271.57477    216771.81  0.049176484 
   39700    305.88572   -111501.41   -110648.89    68.224286    216778.46  0.049174975 
   39800    306.25898   -111505.05   -110651.49    95.654685    216787.86  0.049172843 
   39900    299.57413   -111489.71   -110654.78    212.39241    216793.34    0.0491716 
   40000    295.22745   -111482.57   -110659.76    376.27467    216833.18  0.049162566 
   40100    297.18271   -111496.41   -110668.15   -1.8068013     216897.7   0.04914794 
   40200    302.03786   -111523.19    -110681.4   -206.70084    216973.69  0.049130728 
   40300    279.82219   -111477.57   -110697.69   -289.21166    217004.64   0.04912372 
   40400    287.10693   -111511.84   -110711.66    159.82342     216980.8  0.049129118 
   40500    284.11132    -111511.2   -110719.36   -142.20154     216922.2  0.049142389 
   40600    280.03086   -111502.98   -110722.51    425.34923    216808.51  0.049168159 
   40700    284.42421   -111511.62   -110718.91    44.583069    216648.17  0.049204547 
   40800    283.14084   -111498.57   -110709.44   -469.80955     216446.6  0.049250372 
   40900     291.8163   -111507.47   -110694.16   -306.93725    216235.27  0.049298505 
   41000    297.91997   -111507.74   -110677.42   -157.78701    216053.73  0.049339928 
   41100     301.7411   -111506.02   -110665.05    10.050503    215884.93  0.049378507 
   41200    306.20451   -111511.24   -110657.83    40.716316    215696.12  0.049421731 
   41300    305.66153   -111505.74   -110653.85   -45.280072    215455.15  0.049477004 
   41400    298.91014   -111484.68    -110651.6    -272.2353    215169.55  0.049542676 
   41500    298.62838   -111480.25   -110647.95    111.79203    214869.66  0.049611823 
   41600    302.56141   -111486.61   -110643.36    49.137525    214557.85  0.049683922 
   41700      302.443   -111482.16   -110639.23      37.9834    214253.71  0.049754449 
   41800    304.51931   -111486.09   -110637.38    211.66267    213951.78  0.049824664 
   41900    305.90866   -111488.94   -110636.35   -119.48255    213667.68  0.049890912 
   42000     299.7916   -111470.97   -110635.43   -173.65245    213398.05   0.04995395 
   42100     302.7936   -111480.14   -110636.24    308.81065    213155.31  0.050010836 
   42200    305.60094   -111491.74   -110640.01     701.6663    212960.27  0.050056638 
   42300    313.00818   -111518.32   -110645.95   -156.15698    212837.31  0.050085557 
   42400    305.25487   -111506.02   -110655.26   -52.279794    212788.53  0.050097039 
   42500    302.56797   -111508.39   -110665.12    126.38288    212775.57  0.050100091 
   42600     293.3439    -111494.3   -110676.73   -386.17173    212759.77  0.050103811 
   42700     304.5953   -111536.41   -110687.48   -597.30497    212735.64  0.050109494 
   42800    293.96234   -111518.47   -110699.18    370.78283    212739.57  0.050108569 
   42900    288.25605    -111510.5   -110707.11   -178.42957    212820.89  0.050089423 
   43000    284.14265   -111502.78   -110710.86   -402.51379    212927.75  0.050064283 
   43100    288.11325   -111512.66   -110709.67   -188.97522    213018.81  0.050042883 
   43200    293.66005   -111523.27   -110704.82   -499.15748    213066.15  0.050031764 
   43300    297.26567   -111525.09   -110696.59   -113.26668    213076.63  0.050029304 
   43400    288.12777   -111490.41   -110687.38     436.7082    213084.46  0.050027465 
   43500    293.38426   -111493.91   -110676.23   -224.24802    213111.85  0.050021035 
   43600    285.43953   -111460.84    -110665.3    345.84459    213116.29  0.050019992 
   43700    294.42439   -111477.63   -110657.05    75.850504     213079.8  0.050028558 
   43800    300.22909    -111487.5   -110650.75    279.71802    213046.96  0.050036271 
   43900    305.95526   -111498.37   -110645.65   -104.78946    213012.73   0.05004431 
   44000    294.99823   -111464.86   -110642.69   -113.67378    212977.93  0.050052489 
   44100    303.13202   -111485.16   -110640.32   -80.783914    212949.74  0.050059114 
   44200    304.53032    -111488.7   -110639.95    120.24145    212925.89  0.050064722 
   44300    301.62093   -111481.34   -110640.71   -156.56404    212896.51  0.050071629 
   44400    300.85279   -111480.19    -110641.7   -261.99163    212861.01  0.050079981 
   44500    297.43677   -111470.21   -110641.24    407.04348    212824.98   0.05008846 
   44600    288.67713   -111444.78   -110640.22   -341.57806    212803.77  0.050093452 
   44700    306.44708   -111493.21   -110639.13    190.14694    212786.06   0.05009762 
   44800    304.49512   -111486.68   -110638.03    -416.1716    212767.25  0.050102049 
   44900    300.54371   -111473.47   -110635.84    253.08045    212742.95  0.050107773 
   45000    302.73984   -111478.01   -110634.26   -160.43231    212722.73  0.050112535 
   45100     310.6902   -111499.83   -110633.92    101.55847    212742.71  0.050107828 
   45200    300.22821   -111470.82   -110634.06    -139.8059    212763.37  0.050102964 
   45300    314.28534   -111509.71   -110633.78   -548.27085    212708.88  0.050115798 
   45400    302.39113   -111477.23   -110634.45    128.34696    212610.66   0.05013895 
   45500    298.71001   -111470.95   -110638.43   -177.56306    212520.46  0.050160231 
   45600     300.9528   -111482.96   -110644.19   -107.54012    212416.74  0.050184724 
   45700    301.04082   -111488.88   -110649.86    76.271448    212269.31   0.05021958 
   45800    281.04796   -111439.34   -110656.05   -87.194901     212113.6  0.050256444 
   45900    317.56623   -111545.92   -110660.84     328.9428    211987.71   0.05028629 
   46000    308.30378    -111527.3   -110668.04   -77.560885       211910  0.050304729 
   46100    296.54099   -111500.26   -110673.78   -232.92486    211848.43   0.05031935 
   46200     285.1944   -111474.77   -110679.92   -84.021856    211759.81  0.050340408 
   46300    287.34541   -111484.84   -110683.99   -78.188403    211631.77  0.050370864 
   46400    290.48777   -111496.23   -110686.62   -208.83495    211468.45  0.050409767 
   46500    288.84084   -111491.17   -110686.16    353.33243    211295.87  0.050450941 
   46600    293.62086    -111499.9   -110681.56   -28.162526    211150.76  0.050485612 
   46700    289.00622   -111476.98   -110671.51     298.3027    211061.04  0.050507072 
   46800    300.79107   -111495.42    -110657.1   -20.387985    210995.29  0.050522813 
   46900    299.29052   -111474.66   -110640.52   -88.816887    210905.26  0.050544379 
   47000    307.22852   -111482.71   -110626.44   -44.095525     210761.3  0.050578902 
   47100    312.07103   -111487.25   -110617.49   -240.62857    210583.61  0.050621582 
   47200    318.81245   -111502.19   -110613.65    29.555628    210416.64   0.05066175 
   47300    301.72866   -111454.81   -110613.88     195.6416    210287.24  0.050692925 
   47400    305.74988   -111467.51   -110615.37   -180.44527    210209.04  0.050711785 
   47500    299.85366   -111454.17   -110618.46    422.40615    210131.49  0.050730499 
   47600    306.23268   -111476.32   -110622.84    150.78115     210045.1  0.050751363 
   47700    311.45131   -111497.36   -110629.33    111.89817    209937.81  0.050777301 
   47800    306.24404    -111491.4   -110637.88    385.98867    209861.78  0.050795697 
   47900    290.03441   -111454.06   -110645.72   -333.17162    209822.87  0.050805117 
   48000    294.80132   -111475.62   -110653.99    177.58207    209801.33  0.050810333 
   48100    304.21508   -111508.72   -110660.86   -541.86768    209784.45  0.050814421 
   48200     289.1838   -111473.58   -110667.61   -456.89795    209766.38  0.050818799 
   48300    294.64739   -111491.12   -110669.92    152.46626    209743.02  0.050824459 
   48400    288.57271   -111474.22   -110669.95    200.39395     209730.6  0.050827468 
   48500    300.73716   -111506.83   -110668.66    20.661811     209719.6  0.050830134 
   48600    299.35205   -111501.19   -110666.88     2.920678    209693.42   0.05083648 
   48700    298.81547   -111498.04   -110665.22   -71.297375    209662.77  0.050843912 
   48800    292.74257   -111479.36   -110663.47   -135.22897    209609.09  0.050856933 
   48900    310.18544   -111525.93   -110661.43    406.67527     209572.3   0.05086586 
   49000    302.98859   -111503.67   -110659.22    190.97419    209533.85  0.050875194 
   49100    296.80591   -111483.33   -110656.12   -64.005958    209498.02  0.050883896 
   49200    301.03728   -111492.39   -110653.38   -194.05657    209453.24  0.050894775 
   49300    298.80723   -111482.39    -110649.6   -29.569426    209404.76  0.050906558 
   49400    296.94033   -111473.06   -110645.47    411.58378    209379.46  0.050912709 
   49500    302.38482   -111484.01   -110641.24   -207.81085    209373.73  0.050914102 
   49600    308.92313   -111496.92   -110635.93   -311.71726    209367.03  0.050915732 
   49700    304.27442   -111477.57   -110629.54    45.526521    209340.12  0.050922277 
   49800    304.66648   -111472.16   -110623.04   -64.965609     209287.9  0.050934981 
   49900    298.61889   -111446.81   -110614.54    128.51597    209249.86   0.05094424 
   50000    300.87863   -111442.14   -110603.57    314.83552    209226.88  0.050949835 
   50100    314.76163   -111466.91   -110589.65    109.31471     209198.8  0.050956674 
   50200    317.25942   -111461.59   -110577.37   -32.498623    209146.86   0.05096933 
   50300    315.93916   -111447.64    -110567.1   -234.99016    209071.73  0.050987647 
   50400    321.04524   -111456.98   -110562.21   -436.43519    208982.46  0.051009426 
   50500    313.18265    -111436.2   -110563.35   -227.84185       208890  0.051032004 
   50600    318.94439    -111458.4   -110569.48   -415.86685    208767.96  0.051061837 
   50700    309.36264   -111441.08   -110578.87    189.67034    208639.96  0.051093162 
   50800    294.44424   -111415.41   -110594.78   -26.893989    208526.94  0.051120854 
   50900    318.15454   -111500.49   -110613.78   -255.99591    208411.17  0.051149252 
   51000     303.2974   -111476.22   -110630.91    429.76562    208266.34  0.051184822 
   51100    301.04324   -111479.94   -110640.92    -112.8231    208085.34  0.051229344 
   51200    293.19111   -111463.66   -110646.52    72.294321    207883.95  0.051278972 
   51300    302.05538   -111491.32   -110649.47     232.7972    207705.32  0.051323073 
   51400     297.2739   -111478.68   -110650.16   -11.209227    207540.62  0.051363802 
   51500     293.2167   -111466.19   -110648.98   -308.01681    207375.13  0.051404792 
   51600    295.26647   -111468.76   -110645.84    701.46324    207200.27  0.051448172 
   51700    293.45896   -111458.66   -110640.77    64.793164    207057.84  0.051483563 
   51800    304.89955   -111485.21   -110635.44     204.0607    206930.65  0.051515208 
   51900    301.33856   -111469.86   -110630.01    386.69583    206814.85  0.051544051 
   52000     307.2399   -111481.37   -110625.07    138.84693    206728.41  0.051565604 
   52100    299.87943   -111456.98    -110621.2    80.119416    206653.02  0.051584416 
   52200    309.18842   -111479.41   -110617.68   -255.75703    206535.09  0.051613871 
   52300    300.93247   -111454.52    -110615.8    80.860609     206385.2  0.051651356 
   52400     308.4013   -111474.71   -110615.18   -171.36032    206213.72  0.051694308 
   52500    304.78944   -111465.67   -110616.21    260.04731    206012.45  0.051744812 
   52600    307.80981   -111477.29   -110619.41   -210.22943    205822.41  0.051792588 
   52700    309.98829   -111491.43   -110627.47    182.80115    205643.69  0.051837601 
   52800    307.42332   -111496.59   -110639.78   -198.25254    205474.31  0.051880332 
   52900    297.28679    -111484.1   -110655.54    456.68339    205266.42  0.051932875 
   53000     294.9408   -111490.77   -110668.76      174.584    205058.72  0.051985476 
   53100    294.88737    -111500.6   -110678.74    317.84629    204876.61  0.052031686 
   53200    298.16242   -111516.26   -110685.26   -21.152495    204715.43  0.052072653 
   53300    289.36271    -111494.5   -110688.03    138.62192    204564.61  0.052111045 
   53400       297.68   -111517.12   -110687.47    229.28681    204452.04  0.052139735 
   53500     293.5786   -111503.36   -110685.14   -159.83418    204336.86  0.052169127 
   53600    297.72605   -111511.15   -110681.37    -55.30806    204182.67  0.052208521 
   53700    297.20798   -111504.41   -110676.07    64.413912    204001.14   0.05225498 
   53800    303.33429   -111514.19   -110668.78   -619.73893    203814.85  0.052302742 
   53900    295.87779   -111484.44   -110659.81    331.13052    203628.75  0.052350541 
   54000    302.40393   -111489.81      -110647   -369.81216    203421.22  0.052403949 
   54100    314.10404   -111508.04   -110632.61    73.793662    203185.31  0.052464793 
   54200    297.79066   -111448.25   -110618.29   -16.056135    202926.71  0.052531652 
   54300    299.70862   -111443.02   -110607.72    15.729663    202648.89  0.052603669 
   54400    311.97838   -111472.41   -110602.91   -192.71879    202371.84  0.052675686 
   54500    317.81071   -111488.08   -110602.32    38.731071    202121.51  0.052740924 
   54600    296.79402   -111432.36   -110605.18    79.124365    201879.09  0.052804257 
   54700    297.01317   -111435.59    -110607.8    218.79731    201663.09  0.052860815 
   54800    305.45054   -111463.18   -110611.87   -481.61347    201479.14  0.052909077 
   54900    308.16904   -111477.01   -110618.12    -260.5543     201303.3  0.052955293 
   55000    298.67458   -111458.91   -110626.49    134.88998    201113.48  0.053005274 
   55100     306.1492   -111487.24   -110633.98    65.433122    200934.05  0.053052608 
   55200    296.99759   -111469.38   -110641.63   -176.29062    200764.29  0.053097468 
   55300     308.5116    -111508.9   -110649.06   -286.12581    200619.07  0.053135902 
   55400    294.21854   -111476.27   -110656.26    268.02452    200473.73  0.053174425 
   55500     292.7659   -111477.16    -110661.2   -32.498872    200336.43  0.053210867 
   55600    300.54793   -111503.96   -110666.32    110.04759    200189.12  0.053250025 
   55700    298.68064   -111503.48   -110671.04   -4.7376586     200040.9  0.053289479 
   55800    293.78862   -111493.61   -110674.81   -236.15166    199889.71  0.053329785 
   55900    302.06794   -111520.36   -110678.47   -114.52302    199714.61  0.053376541 
   56000    302.55366   -111525.07   -110681.84    -353.1736    199520.86  0.053428375 
   56100     290.9569   -111496.59   -110685.68    27.451798     199312.2   0.05348431 
   56200    291.93709   -111500.68   -110687.04   -442.90521    199131.75  0.053532777 
   56300     294.6504   -111509.06   -110687.85   -166.97489    198968.98  0.053576569 
   56400    301.43516   -111527.76   -110687.65    97.954231    198795.87  0.053623224 
   56500    287.50103   -111486.14   -110684.86    723.55743    198606.77  0.053674281 
   56600    298.40677   -111511.65   -110679.97    263.97629    198430.68   0.05372191 
   56700    293.99781   -111490.99    -110671.6    -284.2391    198263.21   0.05376729 
   56800    303.68559   -111507.83   -110661.44    257.19262    198105.72  0.053810034 
   56900     300.5716   -111486.65   -110648.94   -168.73349    197966.34  0.053847919 
   57000    298.42685   -111469.12   -110637.39     -334.077    197852.79  0.053878824 
   57100    299.68414   -111462.36   -110627.12   -12.202189    197709.27  0.053917935 
   57200    307.16635   -111476.18   -110620.09   -102.89362    197515.38  0.053970861 
   57300     303.5989   -111461.42   -110615.28   -338.52466    197294.87  0.054031184 
   57400    315.51374   -111492.39   -110613.04   -402.90138    197070.12  0.054092805 
   57500    302.66961   -111455.54   -110611.98    275.96403     196856.3  0.054151558 
   57600    305.28647   -111465.53   -110614.68    257.59825    196676.98  0.054200931 
   57700    299.55223   -111454.16   -110619.29    217.91817    196496.09  0.054250826 
   57800     292.4788   -111439.75   -110624.59   -406.61862    196308.54  0.054302657 
   57900    305.65182   -111482.18   -110630.31    145.65675    196080.36  0.054365849 
   58000    294.85134   -111457.01   -110635.25    222.63679    195843.33  0.054431648 
   58100    302.60597   -111485.43   -110642.05   -116.02264    195630.68  0.054490816 
   58200     283.3395   -111441.88    -110652.2    325.76958    195468.45  0.054536041 
   58300    300.31404   -111500.26   -110663.26    30.279242     195341.2  0.054571567 
   58400    281.14386   -111459.44   -110675.87   -313.80929     195183.5  0.054615658 
   58500    297.75756   -111516.35   -110686.48    61.508794    194979.93  0.054672681 
   58600    291.33461   -111506.19   -110694.22   -233.54821    194765.07  0.054732994 
   58700    288.47319   -111502.44   -110698.45    342.05131    194577.63   0.05478572 
   58800    293.78627   -111518.16   -110699.36   0.46173491    194407.51  0.054833659 
   58900    296.39408   -111522.25   -110696.18    93.546523    194243.88  0.054879852 
   59000    301.37011   -111529.61   -110689.67      370.327    194096.08  0.054921643 
   59100    286.30615   -111476.28   -110678.33   -54.878712    193974.33  0.054956114 
   59200    298.35494   -111493.34   -110661.81    77.978722    193849.32  0.054991554 
   59300    301.67219   -111483.89   -110643.11    166.61573    193709.37  0.055031283 
   59400    298.40147   -111459.33   -110627.67   -380.44574    193571.25  0.055070552 
   59500    304.66104   -111466.58   -110617.47   -62.633058    193427.17  0.055111573 
   59600    302.30656   -111455.34    -110612.8    13.716184    193278.95  0.055153834 
   59700     305.7713   -111463.61   -110611.41    268.71698    193111.69  0.055201605 
   59800    304.88605   -111460.91   -110611.18   -289.63048    192926.98  0.055254456 
   59900    297.60375   -111442.73   -110613.29    130.27811    192731.29   0.05531056 
   60000     301.2009   -111456.18   -110616.72    -334.5053    192555.51   0.05536105 
   60100     310.4671   -111486.15   -110620.86   -59.117671    192395.24  0.055407168 
   60200    313.57125   -111502.23   -110628.29     545.9874    192211.21  0.055460218 
   60300    300.01481   -111473.78   -110637.62   -16.068444    192023.84  0.055514332 
   60400    299.16367    -111480.4   -110646.62    394.24671    191825.15  0.055571833 
   60500    295.00951   -111478.24   -110656.03    1.5460103    191660.31  0.055619629 
   60600    302.53332   -111505.65   -110662.48    234.93616     191492.7  0.055668311 
   60700    298.82834   -111499.48   -110666.63   -193.92496    191325.87  0.055716852 
   60800    297.44643   -111497.89   -110668.89    403.88451    191141.09  0.055770714 
   60900    295.26814   -111493.91   -110670.98    234.97604    190969.95  0.055820695 
   61000    300.70186    -111508.9   -110670.83    95.273087    190811.91  0.055866928 
   61100    298.89895   -111502.61   -110669.56    56.910327    190650.35   0.05591427 
   61200    296.69232   -111494.48   -110667.58    251.69054    190475.48  0.055965603 
   61300    299.18629   -111499.01   -110665.16    323.83668    190304.31  0.056015942 
   61400    300.16121   -111498.61   -110662.04    237.59777    190157.49  0.056059192 
   61500    294.10685   -111479.61   -110659.91    85.348681    190021.07  0.056099439 
   61600    296.13562   -111481.61   -110656.26   -571.88119     189889.7  0.056138249 
   61700    296.73712   -111480.41   -110653.38    500.71528    189740.36  0.056182434 
   61800    295.98147   -111475.25   -110650.33   -160.57452    189581.83  0.056229414 
   61900    302.75314    -111492.6    -110648.8    292.59833    189411.34  0.056280028 
   62000    296.00839    -111472.3   -110647.31     23.29602    189262.74  0.056324217 
   62100    307.44427   -111504.89   -110648.03   -17.835464    189100.34  0.056372586 
   62200    304.80768   -111496.81    -110647.3   -156.67034    188910.39  0.056429271 
   62300    303.15012   -111490.57   -110645.67    546.61536    188720.34  0.056486095 
   62400    296.75452   -111471.37    -110644.3   -66.200914    188573.55  0.056530067 
   62500    296.71249   -111469.68   -110642.72   0.14925492    188469.02  0.056561421 
   62600    303.89614   -111489.82   -110642.85    23.691625    188377.74  0.056588827 
   62700    302.78097   -111486.15   -110642.28    349.10192     188313.7  0.056608072 
   62800    295.02469   -111464.99   -110642.74    59.281829    188252.69  0.056626416 
   62900    299.59675   -111477.14   -110642.15    270.03903    188166.89  0.056652237 
   63000    304.53244   -111489.48   -110640.73    138.74682    188064.63  0.056683043 
   63100    309.57758   -111500.95   -110638.14    438.01002    187971.25  0.056711202 
   63200     298.2229   -111467.92   -110636.75    229.93932    187899.23  0.056732938 
   63300     298.9942   -111467.39   -110634.07    8.8931133    187843.73    0.0567497 
   63400    303.32404   -111476.46   -110631.08   -247.73854    187770.62  0.056771795 
   63500    302.30186    -111471.5   -110628.96    -359.1352    187665.04  0.056803736 
   63600    302.30169   -111471.94    -110629.4   -231.46566    187546.23  0.056839721 
   63700    302.79141   -111475.56   -110631.67   -53.213035     187440.6  0.056871754 
   63800    311.30072    -111503.9   -110636.29    156.96792    187347.52  0.056900009 
   63900    296.82619   -111471.78   -110644.51   -216.47407    187252.84  0.056928777 
   64000    297.92363   -111483.16   -110652.83   -514.47083    187142.47  0.056962352 
   64100    285.19745   -111454.77   -110659.91     172.0986    187011.73  0.057002175 
   64200    286.18829   -111462.65   -110665.02    28.250817    186880.76  0.057042122 
   64300    295.41643   -111492.47   -110669.13   -37.457891    186749.88  0.057082101 
   64400    290.29886   -111481.19   -110672.11     5.787299    186617.64  0.057122548 
   64500    287.11723   -111473.04   -110672.83   -140.12298    186485.41  0.057163052 
   64600    291.59856   -111482.85   -110670.15    14.011123    186363.21  0.057200536 
   64700    288.96819   -111467.97    -110662.6    12.290445    186253.13  0.057234342 
   64800    297.60404   -111478.65   -110649.21    58.442685    186143.91  0.057267925 
   64900    298.72756   -111466.61   -110634.04    101.18906    186014.74  0.057307691 
   65000    305.77735   -111472.27   -110620.05   -85.299892    185858.29  0.057355932 
   65100    304.08717   -111456.85   -110609.34     381.6365    185686.85  0.057408887 
   65200     300.7607   -111441.01   -110602.77    431.48253    185516.35  0.057461649 
   65300    302.07011    -111440.8   -110598.91   -30.831668    185346.02  0.057514456 
   65400     316.3865   -111480.34   -110598.55   -206.28309    185174.98  0.057567578 
   65500    304.18181   -111449.73   -110601.96     146.9926    184990.34  0.057625037 
   65600    310.04424   -111470.66   -110606.55    342.67771    184799.58   0.05768452 
   65700    302.43232   -111456.83   -110613.94   -296.29866    184638.88  0.057734727 
   65800    298.50274    -111452.6   -110620.65    248.70085    184508.43  0.057775547 
   65900    295.26622   -111449.93   -110627.01   -57.654924     184405.7  0.057807733 
   66000    300.19319   -111468.91   -110632.25   -222.25542    184299.56  0.057841025 
   66100    305.80426   -111487.05   -110634.76   -103.28525     184210.1  0.057869114 
   66200    297.81982   -111467.54    -110637.5   -837.38567    184118.56  0.057897885 
   66300    300.06141   -111474.86   -110638.57    311.47633    183998.82  0.057935563 
   66400    303.01844   -111483.91   -110639.38   -193.98015    183884.02  0.057971733 
   66500    310.13284   -111505.18   -110640.82    315.48798    183751.33  0.058013595 
   66600    302.99438   -111487.47   -110643.01    47.415507    183625.06  0.058053488 
   66700    299.70231   -111480.29      -110645    372.17155    183519.19  0.058086978 
   66800    302.04171   -111489.27   -110647.46   -38.102441    183445.09  0.058110442 
   66900    300.61538   -111487.48   -110649.65   -109.90361    183365.58   0.05813564 
   67000    304.92026   -111500.82   -110650.99    166.95726    183279.35  0.058162992 
   67100    299.44706   -111487.89   -110653.31   -358.24936    183214.44  0.058183599 
   67200    304.43052   -111504.97    -110656.5   -17.721306    183151.61  0.058203558 
   67300    293.85145    -111479.1   -110660.12   -142.32091    183084.39  0.058224928 
   67400    285.76284   -111460.68   -110664.25    316.70746    182988.67  0.058255383 
   67500    296.48963    -111493.5   -110667.17   -241.87933    182919.14  0.058277528 
   67600    300.79753   -111508.43   -110670.09   -76.719945    182864.83  0.058294836 
   67700    301.27914   -111514.91   -110675.23   -195.80392    182809.38   0.05831252 
   67800    294.02074   -111500.06    -110680.6   -69.338475    182767.03  0.058326031 
   67900    281.11293   -111472.53   -110689.05    190.14114    182723.73  0.058339853 
   68000    297.04017   -111525.25   -110697.38   -371.74033    182677.18  0.058354719 
   68100    296.86838   -111532.67   -110705.28   -54.854158    182639.15  0.058366869 
   68200    299.47039   -111546.77   -110712.12    45.705804    182614.03  0.058374898 
   68300     285.8362   -111512.24   -110715.59   -235.67975    182576.09  0.058387028 
   68400    287.09531   -111516.26   -110716.11    5.5397855    182503.04  0.058410399 
   68500    283.31801   -111502.22   -110712.59   -105.50612    182419.95  0.058437005 
   68600    289.64929   -111510.72   -110703.45   -575.67156    182355.44  0.058457676 
   68700    293.15837   -111506.85    -110689.8    -23.29206    182316.44  0.058470183 
   68800    297.61389   -111501.51   -110672.05    43.993189    182288.24  0.058479226 
   68900    291.69075   -111469.25   -110656.29    -246.8187    182226.21  0.058499133 
   69000    299.33211   -111478.74   -110644.48   -151.55392    182118.39  0.058533767 
   69100    300.62243   -111475.28   -110637.43   -262.88287    181989.35  0.058575271 
   69200     299.0682   -111465.69   -110632.17    224.79461    181888.72  0.058607676 
   69300    300.16243   -111464.65   -110628.08   -100.72332    181817.17  0.058630742 
   69400      306.665   -111480.54   -110625.85    116.93214    181771.49  0.058645475 
   69500    310.58422   -111492.61      -110627   -334.78678    181701.36   0.05866811 
   69600     300.7291   -111468.62   -110630.48    6.2081508    181578.62  0.058707768 
   69700    299.72771   -111469.28   -110633.92    12.887773    181437.22   0.05875352 
   69800    305.04767   -111489.04   -110638.86   -170.34732    181279.86  0.058804522 
   69900     308.9367   -111508.12   -110647.09   -142.21293    181144.55  0.058848446 
   70000    289.37232   -111463.83   -110657.33   -44.286896    181050.35  0.058879064 
   70100    299.61205   -111501.85   -110666.81   -185.35227    181013.46  0.058891064 
   70200    286.72516   -111475.38   -110676.26   -301.12353    181020.81  0.058888673 
   70300     294.0421   -111501.86   -110682.35   -183.31431     181042.3  0.058881682 
   70400    289.96475   -111495.81   -110687.66    307.58692    181044.27  0.058881042 
   70500     300.6082   -111527.99   -110690.17    163.98148    181017.98  0.058889594 
   70600    295.87165   -111515.95   -110691.34   -65.994878     180998.5  0.058895931 
   70700    296.81241    -111518.1   -110690.86    159.80737    181024.84  0.058887361 
   70800    285.60366   -111483.44   -110687.44   -47.097954    181106.03  0.058860962 
   70900    298.52472   -111509.38   -110677.38    500.65548    181186.01  0.058834979 
   71000    299.35379   -111497.27   -110662.95    111.50927    181242.72  0.058816572 
   71100    303.53997   -111491.91   -110645.92    179.11992    181279.08  0.058804773 
   71200    304.66814   -111480.92   -110631.79    155.02537     181304.7  0.058796465 
   71300    309.46399   -111484.07   -110621.57    558.58528    181335.66  0.058786427 
   71400    307.41183   -111472.35   -110615.58    352.70976    181386.87  0.058769829 
   71500    305.85619   -111464.74    -110612.3    416.59922    181439.94  0.058752639 
   71600    300.40621   -111446.85    -110609.6    37.150572    181437.91  0.058753297 
   71700     303.7163   -111455.19   -110608.71   -325.98815    181415.05  0.058760699 
   71800    304.24612   -111457.37   -110609.42    83.644013    181397.17  0.058766493 
   71900    306.44834    -111466.6   -110612.51    574.58943    181379.73  0.058772142 
   72000    301.53631   -111459.42   -110619.02   -98.728595    181338.41  0.058785533 
   72100    304.74306   -111477.85   -110628.52   -26.443017    181262.54  0.058810139 
   72200    297.82904   -111470.18   -110640.11    227.93744    181170.87  0.058839896 
   72300    297.12336   -111481.56   -110653.46    121.60056    181065.64  0.058874092 
   72400    287.56221    -111467.6   -110666.15   -59.459631    180937.49  0.058915791 
   72500    297.78334   -111506.96   -110677.02    27.676658    180782.09  0.058966435 
   72600     288.7817   -111489.28   -110684.42   -447.78373    180632.28   0.05901534 
   72700    293.60382   -111505.64   -110687.35    197.02933    180491.77  0.059061281 
   72800     298.2023   -111518.35   -110687.25   -237.77262    180380.08  0.059097852 
   72900     293.2983   -111502.39   -110684.95   -331.93503    180273.86  0.059132674 
   73000    293.36441   -111497.81   -110680.19    209.32588    180143.39    0.0591755 
   73100    289.93205   -111482.09   -110674.03   -11.329663    179989.07  0.059226238 
   73200    291.90735    -111481.8   -110668.24    21.707055    179826.72  0.059279706 
   73300    299.84529    -111499.4   -110663.71     308.0551    179683.56  0.059326939 
   73400    302.87826   -111503.82   -110659.68   -9.8026568    179591.97  0.059357193 
   73500    300.63754   -111496.12   -110658.23   -270.74819    179516.04  0.059382299 
   73600    295.57598   -111480.33   -110656.55   -135.30152    179433.92  0.059409476 
   73700    291.20647   -111465.95   -110654.34    48.879213    179310.76  0.059450284 
   73800    292.63885   -111466.69   -110651.09    -95.65118    179145.72  0.059505053 
   73900    306.47743    -111501.7   -110647.53    785.15656    178978.15  0.059560764 
   74000    300.95221   -111482.84   -110644.07    64.370702     178862.2  0.059599374 
   74100     302.9096   -111485.23      -110641    187.04121    178800.87  0.059619818 
   74200     297.0299   -111466.56   -110638.72   -349.45578    178747.56  0.059637599 
   74300    295.50256   -111459.42   -110635.84   -5.7400555    178665.29  0.059665061 
   74400    304.78508   -111481.85    -110632.4    6.8920426    178573.67  0.059695671 
   74500    295.25066   -111449.63   -110626.75   -162.31084     178472.3  0.059729578 
   74600    307.04603    -111473.5   -110617.75   -40.739021    178382.22  0.059759742 
   74700    303.24143    -111450.5   -110605.35   -120.59422    178297.78  0.059788042 
   74800     316.8402   -111474.73   -110591.68   -614.61605    178210.09  0.059817463 
   74900    299.93274   -111415.12   -110579.19    133.50143    178108.82  0.059851473 
   75000    313.67498   -111443.55   -110569.32   -413.69256    178032.02  0.059877293 
   75100    310.49746   -111428.83   -110563.45   -265.76398    177938.12   0.05990889 
   75200    314.37356   -111438.49   -110562.31   -55.562995    177828.15  0.059945939 
   75300     311.2127   -111433.78   -110566.42   -366.30561    177721.06  0.059982061 
   75400    305.85867   -111428.62   -110576.17    537.27956    177626.89   0.06001386 
   75500    310.18674   -111456.05   -110591.54   -224.02226    177546.37  0.060041079 
   75600    303.32575   -111454.04   -110608.65    444.93638    177460.98  0.060069968 
   75700    307.64208   -111480.31   -110622.89    433.88935    177387.84  0.060094734 
   75800    302.08427   -111475.37   -110633.44   -403.84987    177343.64  0.060109714 
   75900    299.28159   -111474.59   -110640.48   -114.24973    177302.73  0.060123584 
   76000    298.32814      -111478   -110646.54     425.9031     177255.1  0.060139737 
   76100    305.11856   -111502.03   -110651.65   -631.58332    177208.04  0.060155709 
   76200    294.16278   -111477.32   -110657.48   -224.35786    177153.07  0.060174374 
   76300    294.76122   -111484.23   -110662.72    328.26433    177084.47  0.060197688 
   76400    288.31459   -111470.61   -110667.06    289.12477    177010.43  0.060222867 
   76500     297.7556   -111499.23   -110669.37    104.86589    176936.27  0.060248107 
   76600    293.64862   -111488.84   -110670.43   -151.45199    176848.55  0.060277992 
   76700    290.03676   -111476.43   -110668.08   -372.28538    176745.51  0.060313132 
   76800    293.98641    -111482.9   -110663.54    35.973287    176619.28  0.060356238 
   76900    308.30002   -111514.51   -110655.26    17.631435    176493.73  0.060399175 
   77000    301.36629   -111485.68   -110645.76   -283.82796       176388  0.060435377 
   77100    307.01843   -111488.69   -110633.02    111.69227    176288.07  0.060469637 
   77200    317.76695   -111506.54    -110620.9   -258.58804    176178.99  0.060507075 
   77300    316.56985    -111493.1    -110610.8   -51.008353    176056.64  0.060549124 
   77400    307.79134   -111460.66   -110602.83    10.345938    175946.23  0.060587119 
   77500    308.66092   -111458.94   -110598.68   -224.05617    175842.35  0.060622911 
   77600    315.06419   -111474.59   -110596.48   -532.94258     175736.1  0.060659566 
   77700    310.22385   -111461.45   -110596.83   -88.462827     175620.5  0.060699493 
   77800    304.75763   -111450.46   -110601.08    316.14124    175527.11   0.06073179 
   77900    309.13713   -111474.47   -110612.88   -607.29342    175467.46  0.060752434 
   78000    299.01079   -111467.59   -110634.23    45.410172    175412.12  0.060771602 
   78100    294.66314   -111478.33   -110657.08   -88.999549    175352.34  0.060792318 
   78200    289.09704   -111478.63    -110672.9   -3.6354287    175303.66    0.0608092 
   78300    286.38705   -111478.93   -110680.75    373.78429     175282.1  0.060816681 
   78400    287.24505   -111484.31   -110683.74    249.26692    175256.57  0.060825539 
   78500    303.99984    -111531.2   -110683.93    65.187917    175216.59  0.060839417 
   78600    296.97062   -111508.71   -110681.04   -225.26051    175181.77  0.060851512 
   78700    301.01895   -111515.59   -110676.63   -19.253334    175142.97  0.060864992 
   78800     286.4056   -111469.33    -110671.1   -265.26999    175096.14   0.06088127 
   78900    285.09204   -111457.15   -110662.58     201.2077    175066.23  0.060891671 
   79000    298.75872   -111485.83   -110653.18    200.12268    175064.34  0.060892329 
   79100    298.34542   -111473.69   -110642.18   -28.203737    175072.49  0.060889495 
   79200    308.80602   -111493.08   -110632.42    298.90858    175085.44  0.060884989 
   79300    305.08685   -111474.81   -110624.51   -320.00726    175100.73  0.060879673 
   79400    309.49838   -111481.95   -110619.36    -149.6766    175089.63  0.060883534 
   79500    310.21354   -111480.74   -110616.16    362.24073     175066.4  0.060891611 
   79600    299.96005   -111449.88   -110613.87   -243.39406    175051.48  0.060896803 
   79700     314.6173   -111490.47   -110613.61    118.05038    175055.44  0.060895424 
   79800    300.32366   -111454.73   -110617.71    128.78906    175038.92  0.060901171 
   79900    293.88799   -111445.34   -110626.26    250.06107    174999.61  0.060914853 
   80000    289.55306   -111447.19   -110640.19    216.38761    174923.68  0.060941292 
   80100    298.10762   -111489.23   -110658.39   -244.40121    174821.99   0.06097674 
   80200    298.93469   -111510.79   -110677.64   -6.5786744    174705.18  0.061017513 
   80300    288.61164   -111496.41   -110692.03   -329.37323    174572.58   0.06106386 
   80400     296.2937   -111525.13   -110699.35     99.18517    174438.72  0.061110717 
   80500    293.07862   -111517.88   -110701.06    216.76191    174319.68  0.061152449 
   80600     286.4253   -111497.73   -110699.45    164.47784    174213.26  0.061189806 
   80700    301.58178   -111535.88   -110695.35    -291.7862    174081.74  0.061236032 
   80800    295.23435   -111512.64   -110689.81    150.24003     173935.5  0.061287518 
   80900    304.69418   -111533.04   -110683.84   -285.85007    173800.16  0.061335246 
   81000    297.91485   -111507.63   -110677.32    522.92987    173674.63  0.061379577 
   81100    287.56528   -111470.95   -110669.49   -6.9934764    173559.38  0.061420334 
   81200     301.3092   -111500.76   -110660.99    -141.1176    173436.81  0.061463741 
   81300    308.45809   -111512.52   -110652.83    118.31195    173315.55  0.061506745 
   81400    304.79377   -111495.79   -110646.31   -239.78842    173205.92  0.061545677 
   81500    291.42904   -111453.48   -110641.25      220.609    173106.71  0.061580948 
   81600    304.04427    -111482.3   -110634.91    660.74004    173016.38    0.0616131 
   81700    295.36964   -111453.23   -110630.02    156.60937    172952.26  0.061635942 
   81800     318.3874   -111513.69   -110626.33    48.569992    172908.94  0.061651382 
   81900    296.49883   -111452.32   -110625.96    28.061451    172866.66  0.061666463 
   82000    307.77938   -111486.04   -110628.24   -169.10278    172815.14  0.061684846 
   82100    304.75604   -111482.23   -110632.86    272.30696    172770.75  0.061700696 
   82200    306.39482   -111491.87   -110637.93    133.52172    172763.01  0.061703461 
   82300    297.19285   -111476.46   -110648.16   -392.91698    172748.64  0.061708593 
   82400    299.61357   -111501.41   -110666.37    383.54601    172712.78  0.061721405 
   82500    292.96115   -111508.87   -110692.37    50.778358    172676.17  0.061734491 
   82600    287.36286   -111511.56   -110710.66   -137.49347    172647.28   0.06174482 
   82700     284.4129   -111511.24   -110718.57    758.31087    172627.18  0.061752009 
   82800    289.21056   -111525.69   -110719.65   -52.803484     172625.5   0.06175261 
   82900    288.92972   -111521.54   -110716.28    174.31469    172623.28  0.061753405 
   83000    288.30674   -111512.99   -110709.46   -578.00041    172620.31  0.061754467 
   83100    286.63472   -111498.52   -110699.65   -94.683777    172616.33   0.06175589 
   83200      291.768   -111501.69   -110688.52   -78.574158     172633.2  0.061749858 
   83300    297.55406   -111506.14   -110676.84   -597.94301    172628.21  0.061751642 
   83400     293.9215   -111484.54   -110665.36   -48.585653    172577.31  0.061769853 
   83500    304.02127   -111500.78   -110653.46    50.411621    172505.72   0.06179549 
   83600    306.31826   -111496.46   -110642.73    207.69242    172455.56  0.061813464 
   83700    301.65432   -111476.03    -110635.3    78.943176    172449.98  0.061815464 
   83800    301.88714   -111470.55   -110629.17   -327.93096    172464.07  0.061810412 
   83900    299.08313   -111458.19   -110624.62    193.00554    172460.45  0.061811711 
   84000    300.53325   -111459.28   -110621.67     306.7397    172461.67  0.061811272 
   84100    313.13391   -111493.54   -110620.82   -252.20439    172454.38  0.061813887 
   84200    305.69638   -111474.18   -110622.19    252.40388    172420.17  0.061826149 
   84300    310.57279   -111491.26   -110625.68   -472.05058    172397.66  0.061834221 
   84400     307.7747   -111490.66   -110632.88   -473.75383    172372.78  0.061843149 
   84500    294.44858   -111461.56   -110640.92    -479.9877    172331.74  0.061857877 
   84600    297.80994   -111479.57   -110649.56    88.830885    172290.86  0.061872551 
   84700    289.11758   -111466.39    -110660.6   -371.36917    172243.06  0.061889723 
   84800    294.72948   -111495.53    -110674.1   -380.36376    172157.83  0.061920363 
   84900    288.53135   -111493.15      -110689    194.12042    172056.06  0.061956988 
   85000    284.58896   -111494.08   -110700.92    44.592357    171955.97   0.06199305 
   85100     283.8428   -111499.09      -110708    122.66846    171869.84  0.062024118 
   85200    280.90405   -111492.44   -110709.55   -243.95125    171799.02  0.062049687 
   85300    291.61612      -111519   -110706.25     330.6519    171726.63  0.062075843 
   85400    287.47669    -111501.7   -110700.49    -459.3955     171647.9  0.062104315 
   85500    298.33044   -111525.55   -110694.08    37.509606    171564.63  0.062134457 
   85600    290.95577   -111496.77   -110685.86   -1.9300914       171484  0.062163674 
   85700    298.45287   -111511.45   -110679.65    682.42335    171411.38  0.062190009 
   85800    289.67373    -111481.6   -110674.27      226.338    171354.35  0.062210708 
   85900    297.60376   -111499.05   -110669.61    182.75991    171314.09  0.062225329 
   86000    296.75019   -111491.56    -110664.5   -115.79664    171281.71   0.06223709 
   86100    302.20246   -111501.72   -110659.46    173.38707    171243.89  0.062250836 
   86200    306.63425   -111509.31    -110654.7      76.6945    171214.14  0.062261654 
   86300    295.56947    -111473.7   -110649.93    -425.0398    171167.49   0.06227862 
   86400    299.30981   -111479.07   -110644.88    -400.8882    171106.13  0.062300954 
   86500     295.1659   -111464.47   -110641.83    213.57863    171056.95  0.062318867 
   86600    306.88506   -111495.36   -110640.06   -144.24764     171040.4  0.062324898 
   86700    309.31064   -111502.85   -110640.79    850.08427    171006.18   0.06233737 
   86800    305.56861   -111495.08   -110643.44    64.974156    170968.06  0.062351269 
   86900    304.92126   -111499.95   -110650.11     232.8186    170931.16   0.06236473 
   87000    305.67365   -111512.32   -110660.39    45.644261    170909.87  0.062372497 
   87100    287.79235   -111476.18   -110674.08   -202.37965    170900.63   0.06237587 
   87200    285.16527   -111481.73   -110686.96   -60.844236    170866.23  0.062388428 
   87300    286.76357   -111497.21   -110697.98    172.39636     170828.3  0.062402278 
   87400    285.98655   -111502.26    -110705.2    131.13833    170781.73  0.062419296 
   87500    290.90921   -111517.72   -110706.94    -160.1611    170739.43  0.062434761 
   87600    291.67936   -111518.46   -110705.54    52.869917    170667.51  0.062461072 
   87700    290.97819   -111512.78   -110701.81    5.5294507    170571.49   0.06249623 
   87800    291.84423   -111507.29   -110693.91    462.77581    170454.08  0.062539278 
   87900    288.10296   -111484.67   -110681.72    183.90271    170340.04  0.062581148 
   88000    302.58708   -111508.89   -110665.56   -683.99926    170213.23  0.062627773 
   88100    300.99579   -111485.79   -110646.89     195.5182    170079.21  0.062677123 
   88200    314.43523    -111508.4   -110632.05    129.08453    169962.64  0.062720111 
   88300    312.91542   -111496.48   -110624.36    309.89727    169861.82  0.062757337 
   88400    310.67418   -111489.38   -110623.51   -262.03269    169763.69  0.062793611 
   88500    306.53927    -111479.4   -110625.06    383.04325    169657.36  0.062832966 
   88600    309.13424   -111489.19   -110627.61    374.84977    169579.93  0.062861658 
   88700    305.83778   -111483.78   -110631.39    -163.3022    169522.53  0.062882943 
[...]
  978700    295.22844   -111684.59   -110861.77    10514.803    9397.7585    1.1343211 
  978800    303.10009   -111695.23   -110850.47   -5707.5592    9394.3813    1.1347288 
  978900    310.93131   -111704.45   -110837.86    3297.0015      9391.08    1.1351277 
  979000    318.42855   -111713.56   -110826.08    8228.0452    9387.6598    1.1355413 
  979100    313.57052   -111690.45   -110816.51     3557.436     9385.161    1.1358436 
  979200    314.66739   -111686.76   -110809.76    77.629019    9383.4585    1.1360497 
  979300    314.42534   -111683.08   -110806.76   -1912.9378    9382.2125    1.1362006 
  979400    319.40001   -111699.81   -110809.62    2077.3307    9381.3285    1.1363077 
  979500    311.60167   -111692.09   -110823.63    643.64179    9382.7882    1.1361309 
  979600    291.59261    -111663.1   -110850.41    2955.6577    9387.3774    1.1355755 
  979700     289.8533   -111684.58   -110876.74   -473.05345     9393.919    1.1347847 
  979800    303.51872   -111737.29   -110891.37   -212.65742    9400.4334    1.1339983 
  979900     301.3552   -111737.46   -110897.56   -338.67336    9406.9291    1.1332152 
  980000    293.69701   -111722.66   -110904.11    55.098174    9414.0833    1.1323541 
  980100    289.53145   -111714.39   -110907.45    1349.0902      9422.14    1.1313858 
  980200     292.0824   -111721.84   -110907.79   -6105.8756    9430.3313    1.1304031 
  980300    297.08605   -111735.16   -110907.16    1658.8795    9437.9371    1.1294921 
  980400    290.51589   -111715.88    -110906.2   -5879.4738    9446.0662    1.1285201 
  980500    293.66164   -111720.66   -110902.21    6555.2809    9454.1339    1.1275571 
  980600     288.2875   -111700.32   -110896.85    1787.8246    9463.7059    1.1264166 
  980700     305.5114    -111741.7   -110890.22    9988.5574    9473.3916    1.1252649 
  980800    302.84966   -111725.96   -110881.91    -10142.46    9482.6789    1.1241629 
  980900    303.73921   -111720.98   -110874.44    -1649.311    9489.3505    1.1233725 
  981000    303.88197   -111713.75   -110866.81   -8338.0099    9494.5081    1.1227623 
  981100     296.3899   -111683.69   -110857.63   -6860.3962    9497.5071    1.1224077 
  981200    310.87808   -111714.98   -110848.54   -1144.0569    9499.6737    1.1221517 
  981300    305.96553   -111693.79   -110841.05   -699.31531    9501.8987     1.121889 
  981400    302.23395   -111677.49   -110835.14    1116.7514    9504.3049    1.1216049 
  981500    313.73144   -111704.98   -110830.59    6188.3988    9505.6449    1.1214468 
  981600      302.573   -111671.13   -110827.84    2310.7162    9505.6607     1.121445 
  981700    304.86621   -111675.35   -110825.67   -8862.7041    9502.7777    1.1217852 
  981800    307.95996   -111684.61    -110826.3   -2538.9256    9497.2904    1.1224333 
  981900    300.77427   -111669.19   -110830.92   -1017.9246    9491.2204    1.1231512 
  982000    297.55961   -111670.58   -110841.26   -3575.4197    9485.6567    1.1238099 
  982100    298.86102   -111688.98   -110856.04    3244.2594    9481.5342    1.1242986 
  982200    294.83976   -111695.89   -110874.15   -4432.5301    9477.8887     1.124731 
  982300    299.78336   -111726.28   -110890.77    4270.4019      9472.23    1.1254029 
  982400     302.4875   -111744.96   -110901.91   -14874.269    9464.4053    1.1263334 
  982500    302.45181   -111752.92   -110909.97   -3833.5719    9455.4174     1.127404 
  982600     292.5259   -111730.41   -110915.12    7744.3088    9445.7365    1.1285595 
  982700    296.73967   -111744.58   -110917.55    3693.5131     9436.669    1.1296439 
  982800    301.65827   -111759.64    -110918.9    1574.6274    9427.7797     1.130709 
  982900    291.76171   -111731.95   -110918.79   -2910.0143    9418.7975    1.1317873 
  983000    300.36175   -111753.09   -110915.97     -6009.52    9410.0273    1.1328421 
  983100    287.46999   -111712.08   -110910.88    1138.0422    9401.4195    1.1338793 
  983200    291.49666   -111714.65   -110902.23   -1027.8819    9393.4803    1.1348377 
  983300    297.18385   -111717.17    -110888.9   -2.6605286    9387.2441    1.1355916 
  983400    312.42018   -111744.17   -110873.44    5642.2732    9382.9323    1.1361134 
  983500    303.36319   -111706.48   -110860.99    14279.685    9380.2765    1.1364351 
  983600    310.18532   -111717.82   -110853.31    267.62498    9379.7025    1.1365046 
  983700    313.48099      -111724   -110850.31    3145.8705    9379.9999    1.1364686 
  983800    302.54344   -111692.89   -110849.68    2359.2554    9381.0616      1.13634 
  983900    291.59912   -111663.64   -110850.93   -2425.5095    9381.4382    1.1362944 
  984000    306.82257      -111708   -110852.87    9804.4394     9380.888     1.136361 
  984100    305.45475   -111706.51   -110855.19   -3493.8616    9379.6865    1.1365066 
  984200    298.76138   -111691.78   -110859.11   -3784.5691    9378.6726    1.1366294 
  984300    298.39391   -111696.16   -110864.52   -2226.2459    9379.2171    1.1365634 
  984400    311.17608   -111736.98   -110869.71    9833.4897    9381.3912    1.1363001 
  984500    300.39757   -111711.93   -110874.71    10270.252    9385.0403    1.1358582 
  984600    291.22739    -111689.5   -110877.83   -3894.4855    9389.4116    1.1353294 
  984700    304.11056   -111728.16   -110880.58   -1049.8636    9393.2941    1.1348602 
  984800    305.72662   -111733.97    -110881.9     1148.565    9398.0269    1.1342887 
  984900    292.78043   -111699.47   -110883.47   -6332.8928    9403.8821    1.1335824 
  985000    295.14914   -111706.55   -110883.95   -543.05113    9409.6139    1.1328919 
  985100    300.44935   -111720.48   -110883.11    1180.1613    9415.6991    1.1321597 
  985200    295.96761   -111705.68    -110880.8    9166.1777    9422.9055    1.1312939 
  985300    293.80802   -111694.57   -110875.71   -1826.2505    9431.2312    1.1302952 
  985400    295.46756   -111693.72   -110870.23    -3637.896    9439.6565    1.1292864 
  985500    298.12151   -111689.61   -110858.73   -6841.3106    9448.0407    1.1282842 
  985600    314.27513   -111711.49   -110835.59    8060.5499    9455.8566    1.1273516 
  985700    310.98147   -111674.23   -110807.51      1415.01    9465.0446    1.1262573 
  985800    304.64138   -111639.43   -110790.38    1769.9029    9476.1878    1.1249329 
  985900    311.47812   -111651.63   -110783.53    3592.3765    9488.4377    1.1234806 
  986000    315.00728   -111660.02   -110782.07    4369.6704    9501.8913    1.1218899 
  986100    318.26693   -111673.91   -110786.88     3872.836    9516.0753    1.1202176 
  986200    315.31616   -111675.73   -110796.92    3306.8928    9529.9778    1.1185834 
  986300    311.78843   -111677.99   -110809.02   -1853.9683    9541.9981    1.1171743 
  986400    303.72523    -111668.3    -110821.8    2830.9612    9553.3213    1.1158502 
  986500    302.04499   -111675.25   -110833.43    4342.5809    9565.4612     1.114434 
  986600    309.28646   -111706.64   -110844.64     9481.964     9578.207     1.112951 
  986700    302.75357   -111697.36   -110853.57   -6232.9675    9590.4716    1.1115278 
  986800    301.70673   -111703.14   -110862.27   -3791.8845    9599.9777    1.1104271 
  986900    293.58465   -111687.79   -110869.55     946.3656    9607.2525    1.1095863 
  987000    294.50743   -111695.06   -110874.25   -8443.6802    9614.5333     1.108746 
  987100    295.99627   -111703.11   -110878.15    6340.9002    9621.2164    1.1079758 
  987200    302.25172    -111724.1   -110881.71    4749.1993    9628.3703    1.1071526 
  987300    292.21597   -111698.56   -110884.14   -2487.2395    9634.3721    1.1064629 
  987400     292.3786   -111700.05   -110885.18    4291.7736    9637.9852    1.1060481 
  987500    296.48345   -111709.91   -110883.59   -10129.435    9639.2618    1.1059016 
  987600    295.55428   -111704.45   -110880.73    3305.4236    9637.4276    1.1061121 
  987700    304.17365   -111723.52   -110875.77   -6141.7049    9635.1339    1.1063754 
  987800    299.08271   -111701.82   -110868.26   -8944.0096    9632.4944    1.1066786 
  987900    299.73924   -111691.57   -110856.18   -7094.3607    9627.7913    1.1072192 
  988000    297.98007   -111672.89    -110842.4   -1878.2388    9620.6059    1.1080462 
  988100     312.8798   -111700.76   -110828.75    3036.3414    9611.6021    1.1090841 
  988200    305.07511    -111668.9   -110818.64    5566.2411    9602.1067    1.1101809 
  988300    305.19204   -111661.86   -110811.27    1725.1788     9593.071    1.1112266 
  988400    313.90039   -111681.86      -110807    7686.4888    9584.7115    1.1121957 
  988500    314.57188    -111684.1   -110807.37   -878.74247    9577.4719    1.1130365 
  988600    312.66445   -111680.87   -110809.46    6171.3617    9570.6295    1.1138322 
  988700    301.03981   -111654.38   -110815.36   -14040.174     9564.923    1.1144967 
  988800    320.15135   -111719.33   -110827.05    3156.2277    9559.7805    1.1150963 
  988900    298.34892    -111675.7   -110844.19   -1360.5708    9553.4206    1.1158386 
  989000    303.31785   -111707.39   -110862.03   -9043.4647     9546.106    1.1166936 
  989100     296.8277   -111703.24   -110875.96    5239.9139    9538.3287    1.1176041 
  989200    298.91269   -111716.77   -110883.68   -2824.3077    9532.4955     1.118288 
  989300    283.24439   -111676.03   -110886.61   -10579.508    9527.1601    1.1189143 
  989400    296.22118   -111712.19    -110886.6    1872.8925    9521.4109    1.1195899 
  989500    287.81107   -111687.69   -110885.55    123.85219    9515.3196    1.1203066 
  989600    304.92325   -111733.44    -110883.6    10630.241    9508.3969    1.1211223 
  989700     300.7722      -111719   -110880.73   -4918.3905    9501.9472    1.1218833 
  989800    302.98542   -111721.91   -110877.48   -1188.6651    9495.7145    1.1226196 
  989900    294.17865   -111693.45   -110873.56    948.53841    9490.0386     1.123291 
  990000    299.71564   -111705.96   -110870.64   -444.87753    9483.8659    1.1240221 
  990100    304.07535   -111715.03   -110867.55   -2977.4129    9478.1883    1.1246955 
  990200    293.97618   -111685.64   -110866.32    4575.8019    9473.5423     1.125247 
  990300    302.53759   -111708.79    -110865.6   -248.28321    9468.6034     1.125834 
  990400    304.86112   -111714.57   -110864.91    1145.9202    9461.6941    1.1266561 
  990500    303.81356   -111711.71   -110864.96    2450.7612    9453.2456     1.127663 
  990600    300.82143   -111702.36   -110863.95    1195.2683    9443.8537    1.1287845 
  990700    296.94971   -111689.41   -110861.79    947.51615    9433.5596    1.1300162 
  990800    294.10247    -111678.3   -110858.62    164.98394     9421.482    1.1314648 
  990900     282.5861   -111642.25   -110854.67    7549.0624    9409.1959    1.1329422 
  991000    304.30416   -111698.55   -110850.44    6202.6893    9397.8387    1.1343114 
  991100    294.83724   -111668.25   -110846.52   -7249.1557    9388.2755    1.1354668 
  991200    310.08943   -111706.91   -110842.68   -615.20546    9379.0928    1.1365785 
  991300    299.55431   -111672.94   -110838.06    5090.9655    9371.4836    1.1375014 
  991400    314.06328   -111709.02   -110833.71   -4953.5539    9366.7655    1.1380743 
  991500    306.00314   -111683.84   -110830.99    8993.8278    9362.5203    1.1385904 
  991600     308.5101   -111691.46   -110831.62   -6331.4925    9356.9349      1.13927 
  991700      314.442   -111713.58   -110837.22    369.30683    9349.2761    1.1402033 
  991800    310.94957   -111714.09   -110847.46    4110.6142    9342.4298    1.1410388 
  991900    305.83491   -111712.61   -110860.23   -8387.1259    9337.4488    1.1416475 
  992000    287.11756   -111674.16   -110873.95    4891.5326    9333.1886    1.1421686 
  992100    300.25875   -111722.15   -110885.31   -2516.3518    9329.1677    1.1426609 
  992200    289.71376   -111701.63   -110894.19    3462.6374    9325.6236    1.1430952 
  992300    294.53357   -111720.28   -110899.39    5985.0689    9321.7846    1.1435659 
  992400    293.03838   -111719.14   -110902.43   -3792.7148    9317.5331    1.1440877 
  992500    287.80648   -111705.18   -110903.04     -2848.49    9312.4088    1.1447173 
  992600     285.2978   -111696.78   -110901.64   -8112.0275    9307.2081    1.1453569 
  992700    293.94633   -111716.71   -110897.46    4829.0419    9303.3298    1.1458344 
  992800    301.31169   -111730.58   -110890.81   -3990.8268     9300.147    1.1462265 
  992900    296.96707   -111711.29   -110883.63    309.17969     9297.129    1.1465986 
  993000     296.9559   -111703.36   -110875.73   -869.95657    9294.6236    1.1469077 
  993100    307.56956   -111724.55   -110867.34    1715.3984    9291.5008    1.1472932 
  993200    297.31267   -111687.01   -110858.38   -2682.2714    9288.4188    1.1476738 
  993300     297.3099   -111680.07   -110851.45    5970.9935    9285.9627    1.1479774 
  993400    304.30622   -111692.62    -110844.5    6659.3528    9285.9213    1.1479825 
  993500    309.65823   -111698.65   -110835.61    2847.4315    9287.5892    1.1477764 
  993600    308.60523   -111685.38   -110825.28    1463.1761    9290.2145     1.147452 
  993700    292.18638   -111624.56   -110810.22   -4805.7339    9292.2894    1.1471958 
  993800    310.58727   -111651.71   -110786.08   -3751.0095    9294.0789    1.1469749 
  993900    311.45904    -111631.8   -110763.75    8022.9633    9297.1434    1.1465969 
  994000    330.89192   -111674.13   -110751.92    4202.3778    9301.8729    1.1460139 
  994100    329.52849    -111668.9   -110750.48    2432.3724    9308.2848    1.1452244 
  994200    332.91165   -111683.62   -110755.78    6350.8817    9316.8601    1.1441704 
  994300    329.92577      -111688   -110768.48    711.54393    9327.5459    1.1428596 
  994400    324.00843   -111689.41   -110786.38   -2323.5378    9338.1527    1.1415615 
  994500    311.38135    -111670.2   -110802.36    4223.0187      9348.02    1.1403565 
  994600    298.77211   -111648.55   -110815.85    6825.8792    9357.0921    1.1392509 
  994700    301.57716   -111668.02   -110827.51    -5677.702    9367.1407    1.1380287 
  994800    316.99837   -111723.11   -110839.62   -2488.9717    9378.4306    1.1366588 
  994900    309.18113   -111714.18   -110852.47     1225.462     9392.093    1.1350053 
  995000    299.50531   -111698.97   -110864.24    3948.9222    9407.7437    1.1331171 
  995100    284.60641   -111667.91    -110874.7    -727.5834    9423.9914    1.1311635 
  995200    300.13022   -111718.98    -110882.5    3283.8435    9440.5874     1.129175 
  995300    304.85649   -111740.19   -110890.54     9614.116    9457.5024    1.1271554 
  995400    297.05382   -111725.62   -110897.72   -9038.2067    9475.8754      1.12497 
  995500    289.47015   -111710.93   -110904.16    4088.7112    9493.5914    1.1228707 
  995600    293.56365   -111725.06   -110906.88   -3608.4459      9510.97    1.1208189 
  995700    292.94828   -111726.66   -110910.19   -2275.8633    9528.9201    1.1187076 
  995800    279.92726   -111691.27    -110911.1    1523.5619    9548.5366    1.1164093 
  995900    303.47366   -111752.94   -110907.14    890.86822    9568.7471    1.1140513 
  996000    288.19284   -111703.86   -110900.65    1040.6589    9587.4778    1.1118748 
  996100    287.67637   -111691.58    -110889.8   -5509.0604    9604.3292     1.109924 
  996200    300.82349    -111713.8   -110875.38    1625.7736    9620.5149    1.1080566 
  996300    307.96643    -111717.1   -110858.78   -7150.9309    9636.0332    1.1062722 
  996400    311.43876   -111715.09    -110847.1     4665.851    9651.1898    1.1045348 
  996500    297.33701   -111667.88   -110839.18   -78.071311    9665.1396    1.1029407 
  996600    299.88896   -111670.26   -110834.45   -9833.4863    9677.4244    1.1015406 
  996700    304.18956   -111682.26   -110834.47    1572.3965    9686.8138    1.1004728 
  996800    305.41996   -111686.55   -110835.33   -5659.2381    9694.5896    1.0995902 
  996900    306.22573   -111690.26   -110836.79    5781.7371    9701.8921    1.0987625 
  997000    312.98466   -111712.64   -110840.33   -6755.6897    9710.7438     1.097761 
  997100    313.63969   -111719.22   -110845.09    87.407376    9718.2362    1.0969146 
  997200    313.08402   -111724.69   -110852.11   -1201.1797    9723.7688    1.0962905 
  997300     317.3482   -111744.51   -110860.05   -11348.028    9727.3594    1.0958858 
  997400    294.53996   -111688.95   -110868.05   -931.30561    9728.8489     1.095718 
  997500    293.42576   -111692.89    -110875.1    429.79705    9729.3652    1.0956599 
  997600    297.94184    -111709.9   -110879.52    -4757.215    9730.0832    1.0955791 
  997700    300.49345   -111719.54   -110882.05    -1065.635    9731.3545    1.0954359 
  997800    298.57014   -111715.92   -110883.78    1574.2631    9732.7802    1.0952755 
  997900    295.41169   -111707.51   -110884.18   -1884.5156    9734.6491    1.0950652 
  998000    294.37867   -111703.55    -110883.1   -6371.8848    9735.0784    1.0950169 
  998100    288.82659   -111685.68    -110880.7    1031.5823    9733.9867    1.0951397 
  998200    298.53576   -111710.65   -110878.61    8551.3926    9731.3541     1.095436 
  998300    294.06405   -111696.62   -110877.05    518.50891    9729.7854    1.0956126 
  998400    298.13646   -111705.24   -110874.32    3830.9439    9729.0405    1.0956965 
  998500    301.79559   -111712.28   -110871.16   -10781.729    9728.4188    1.0957665 
  998600    293.66784   -111686.76   -110868.29    591.54436    9725.9205     1.096048 
  998700    292.42152   -111679.42   -110864.42    9779.6057    9722.2338    1.0964636 
  998800     298.7316   -111694.08    -110861.5    1434.5558    9718.3131    1.0969059 
  998900    308.19281   -111718.44   -110859.49    10425.796    9713.8978    1.0974045 
  999000    310.39306   -111722.34   -110857.25    568.18145    9710.4883    1.0977898 
  999100    309.28446    -111718.2   -110856.21   -148.44404    9706.8751    1.0981985 
  999200    303.11081   -111700.94   -110856.15   -3794.6396    9701.7626    1.0987772 
  999300    298.87628   -111688.62   -110855.63    6301.7024    9693.8366    1.0996756 
  999400    301.64897   -111696.11    -110855.4     3591.176     9684.803    1.1007013 
  999500     306.2961   -111710.02   -110856.36   -2663.9978    9675.5794    1.1017506 
  999600    296.90023   -111684.61   -110857.13   -3104.0819    9665.4075    1.1029101 
  999700    304.46257   -111709.03   -110860.48   -3566.0214    9654.2656    1.1041829 
  999800    287.91588   -111667.38   -110864.94    3945.0825    9642.1384    1.1055717 
  999900    296.05762   -111694.18   -110869.05   -6414.8488    9628.4892    1.1071389 
 1000000    298.61837    -111706.3   -110874.04    3419.8142    9613.2859    1.1088899 
Loop time of 104698 on 1 procs for 1000000 steps with 936 atoms

Performance: 0.206 ns/day, 116.332 hours/ns, 9.551 timesteps/s
99.9% CPU use with 1 MPI tasks x no OpenMP threads

MPI task timing breakdown:
Section |  min time  |  avg time  |  max time  |%varavg| %total
---------------------------------------------------------------
Pair    | 86368      | 86368      | 86368      |   0.0 | 82.49
Neigh   | 363.6      | 363.6      | 363.6      |   0.0 |  0.35
Comm    | 22.533     | 22.533     | 22.533     |   0.0 |  0.02
Output  | 1.6332     | 1.6332     | 1.6332     |   0.0 |  0.00
Modify  | 17942      | 17942      | 17942      |   0.0 | 17.14
Other   |            | 1.088      |            |       |  0.00

Nlocal:    936 ave 936 max 936 min
Histogram: 1 0 0 0 0 0 0 0 0 0
Nghost:    8500 ave 8500 max 8500 min
Histogram: 1 0 0 0 0 0 0 0 0 0
Neighs:    582987 ave 582987 max 582987 min
Histogram: 1 0 0 0 0 0 0 0 0 0

Total # of neighbors = 582987
Ave neighs/atom = 622.849
Neighbor list builds = 10000
Dangerous builds not checked

Please see the log.cite file for references relevant to this simulation

Total wall time: 29:04:58
