LAMMPS (09 Jan 2020)
package omp 0
WARNING: OpenMP support not enabled during compilation; using 1 thread only. (../fix_omp.cpp:125)
units			real
atom_style		charge
read_data d1600000_lmps.dat
  orthogonal box = (-15 -15 -15) to (50 50 50)
  1 by 1 by 1 MPI processor grid
  reading atoms ...
  936 atoms
  read_data CPU = 0.000619888 secs
reset_timestep		0

pair_style              reax/c lmp_control lgvdw yes
pair_coeff              * * ffield C H O N

neighbor		2.5 bin
neigh_modify		delay 0 every 5 check no

fix			qeq all qeq/reax 1 0.0 10.0 1e-6 reax/c
fix			bonds all reax/c/bonds 500 bonds.reaxc
fix			npt all npt temp 300 300 100 iso 1.0 1.0 2000
fix 1 all reax/c/species 10 10 100 species.out cutoff 1 4 0.25
WARNING: Resetting reneighboring criteria for fix reax/c/species (../fix_reaxc_species.cpp:97)


thermo			100
thermo_style            custom step temp pe etotal press vol density
thermo_modify           flush yes

timestep		0.25

dump			1 all custom 1000 dump/dump.reax.npt.* id type xu yu zu
restart			500 restart.npt300 restart.npt300
run 1000000
Last active /omp style is pair_style reax/c/omp
Neighbor list info ...
  update every 100 steps, delay 0 steps, check no
  max neighbors/atom: 2000, page size: 100000
  master list distance cutoff = 12.5
  ghost atom cutoff = 12.5
  binsize = 6.25, bins = 11 11 11
  2 neighbor lists, perpetual/occasional/extra = 2 0 0
  (1) pair reax/c/omp, perpetual
      attributes: half, newton off, ghost, omp
      pair build: half/bin/newtoff/ghost/omp
      stencil: half/ghost/bin/3d/newtoff
      bin: standard
  (2) fix qeq/reax/omp, perpetual, copy from (1)
      attributes: half, newton off, ghost
      pair build: copy
      stencil: none
      bin: none
Per MPI rank memory allocation (min/avg/max) = 80.53 | 80.53 | 80.53 Mbytes
Step Temp PotEng TotEng Press Volume Density 
       0            0   -111685.47   -111685.47    -320.5382       274625  0.038816842 
     100    134.53987   -112046.61   -111671.64    129.35437    274618.28  0.038817792 
     200     158.5059   -112092.87    -111651.1   -119.71026    274599.51  0.038820446 
     300    160.84166   -112076.23   -111627.95    173.49046    274568.25  0.038824866 
     400    161.41489   -112050.27   -111600.39    -292.2828    274518.05  0.038831965 
     500    171.52564   -112048.04   -111569.99   -25.535437    274418.83  0.038846005 
     600    175.91305   -112026.32   -111536.04    322.63389    274284.59  0.038865017 
     700    176.13286   -111991.93   -111501.04   -209.33934     274153.1  0.038883657 
     800    195.37088   -112008.71    -111464.2   -53.602121    274010.38  0.038903911 
     900    201.93507   -111988.51    -111425.7   -103.36791    273868.14  0.038924117 
    1000    205.57932   -111960.24   -111387.27    267.90926    273720.65   0.03894509 
    1100    202.25637   -111909.83   -111346.13   -46.500142    273622.99  0.038958991 
    1200    219.78871   -111917.01   -111304.45   -105.01903    273515.87  0.038974248 
    1300    225.67441   -111890.85   -111261.88    24.322804    273403.52  0.038990264 
    1400    235.86934   -111876.45   -111219.07   -46.933639    273311.27  0.039003424 
    1500    238.03194      -111839   -111175.59    4.9198011    273261.79  0.039010487 
    1600    242.16416   -111807.48   -111132.56   -49.253017    273262.84  0.039010337 
    1700    247.46938   -111778.84   -111089.13   -349.66943     273318.6  0.039002378 
    1800    259.51891   -111768.69   -111045.39    355.99014    273395.76   0.03899137 
    1900    261.13253    -111731.5    -111003.7    150.11135    273491.95  0.038977656 
    2000     270.2613   -111716.15   -110962.91   -20.785875    273609.26  0.038960945 
    2100    285.51532   -111719.22   -110923.47   -218.79696    273764.88  0.038938798 
    2200    291.48729   -111697.99    -110885.6    47.897866    273909.45  0.038918247 
    2300     294.0387   -111669.22   -110849.72   -263.80732    274050.13  0.038898268 
    2400    298.56741   -111649.19   -110817.07   -41.404568    274210.15  0.038875569 
    2500    296.30902   -111612.57   -110786.74    39.631538    274353.05   0.03885532 
    2600     306.7492   -111615.43    -110760.5   -152.28611    274457.07  0.038840593 
    2700    317.99801   -111626.14   -110739.87   -32.912435     274531.3  0.038830091 
    2800    312.63053   -111594.31   -110722.99   -106.47048    274601.09  0.038820223 
    2900    307.07824   -111566.05   -110710.21    168.19804    274648.75  0.038813486 
    3000    315.69132    -111582.8   -110702.95   -18.204388    274691.44  0.038807453 
    3100    308.61041   -111561.88   -110701.77    214.10032    274715.07  0.038804115 
    3200    309.54058   -111568.23   -110705.52   -98.412184     274703.2  0.038805793 
    3300    320.84425   -111609.16   -110714.95    378.03566    274685.45  0.038808299 
    3400    308.06478   -111589.37   -110730.77   -8.6977971    274679.52  0.038809139 
    3500    311.44747   -111616.31   -110748.29   -276.42141       274639  0.038814864 
    3600    291.71635   -111579.26   -110766.23   -315.69206    274550.19  0.038827419 
    3700      303.614   -111629.54   -110783.35    61.472876    274402.94  0.038848254 
    3800     290.5191   -111609.24   -110799.55   -207.04709    274222.81  0.038873773 
    3900    291.26859   -111624.83   -110813.05     -310.558     274048.7  0.038898471 
    4000    290.16303   -111633.59   -110824.89   -163.96915    273894.45  0.038920378 
    4100    288.07111   -111638.96   -110836.09    31.745825    273693.96  0.038948888 
    4200    284.40153   -111635.93   -110843.28    376.03019    273483.92  0.038978801 
    4300    294.27764    -111667.6   -110847.43   -122.97666    273298.51  0.039005246 
    4400    293.38631   -111666.61   -110848.93    166.22965     273136.1  0.039028439 
    4500    285.61211   -111642.51   -110846.49   -656.47527    273002.54  0.039047532 
    4600    290.62937   -111652.26   -110842.26   -224.93266    272862.37  0.039067591 
    4700    286.05347   -111631.92   -110834.67   -23.387041    272745.17  0.039084378 
    4800    296.65937   -111651.88   -110825.07   -11.983164    272653.66  0.039097496 
    4900     303.2035   -111661.22   -110816.17   -101.27289    272573.78  0.039108954 
    5000    296.68328   -111631.96   -110805.09     158.7466    272492.24  0.039120656 
    5100    305.50659   -111646.16   -110794.69    195.53331    272402.57  0.039133535 
    5200    303.96482   -111632.73   -110785.57    133.46623    272313.11  0.039146391 
    5300    313.57117   -111651.41   -110777.47    280.84041    272322.58  0.039145029 
    5400    308.03984   -111630.06   -110771.53    20.107522     272434.9   0.03912889 
    5500    306.77452   -111624.81   -110769.81    290.38917    272560.32  0.039110886 
    5600    309.07012   -111631.41   -110770.02   -92.924685    272664.54  0.039095936 
    5700    301.82224   -111615.38   -110774.18    66.860804    272759.32   0.03908235 
    5800    311.02926   -111645.99   -110779.13    122.04703    272874.29  0.039065883 
    5900    301.46121   -111624.81   -110784.62    93.550882    272982.39  0.039050415 
    6000    309.70704   -111654.26   -110791.08    214.91951    273071.92  0.039037611 
    6100    305.41613    -111649.7   -110798.49    80.631396    273163.64  0.039024503 
    6200    295.47625   -111628.15   -110804.64   -178.66061    273274.51   0.03900867 
    6300    296.67133   -111638.82   -110811.98    4.9364727    273440.94  0.038984928 
    6400    295.24894   -111640.93   -110818.06   -484.08637    273617.41  0.038959785 
    6500     300.0806   -111661.38   -110825.03    275.60439    273721.68  0.038944943 
    6600    293.58993    -111648.9   -110830.65    16.186716    273762.94  0.038939074 
    6700    296.47833   -111661.56   -110835.26   -236.76598    273790.84  0.038935106 
    6800    293.20265   -111654.31   -110837.14    165.31154    273817.41  0.038931328 
    6900    292.07097   -111650.63   -110836.61   -3.6944972    273796.17  0.038934349 
    7000    290.02296   -111641.38   -110833.07    106.51378    273746.88  0.038941359 
    7100    293.16936   -111643.99   -110826.91   -5.7301743    273702.55  0.038947665 
    7200     300.7586   -111656.62   -110818.38   -232.20933    273668.26  0.038952545 
    7300    308.24589   -111667.54   -110808.44   -261.07178    273597.89  0.038962564 
    7400    300.29366   -111634.63    -110797.7   -72.209256    273485.93  0.038978515 
    7500    295.80631    -111610.1   -110785.68   -154.42852    273358.31  0.038996712 
    7600    308.94602    -111633.4   -110772.35    4.5564182    273204.22  0.039018707 
    7700    307.87405   -111618.13   -110760.07    75.330904    273057.09  0.039039731 
    7800    329.43007   -111669.12   -110750.98    413.03908    272904.86  0.039061507 
    7900    304.64009   -111594.31   -110745.26   -117.12075    272785.11  0.039078655 
    8000    304.39426   -111590.83   -110742.46   -38.388293    272676.17  0.039094268 
    8100    298.79522   -111575.28   -110742.52    295.18423    272577.39  0.039108436 
    8200    309.09403   -111605.05   -110743.59   -252.59966    272490.49  0.039120907 
    8300    305.55084   -111598.36   -110746.77   -155.38069    272357.26  0.039140045 
    8400    306.23859   -111605.56   -110752.06    -221.8493    272189.47  0.039164172 
    8500    306.08839   -111613.21   -110760.12    441.61477    271998.33  0.039191694 
    8600    294.89511   -111591.65   -110769.76 -0.041440453    271861.29  0.039211451 
    8700    311.16274   -111649.09   -110781.86    178.55824       271760  0.039226064 
    8800    306.58918   -111649.16   -110794.68     58.02172    271702.59  0.039234354 
    8900    299.04004   -111641.05   -110807.61    -269.6384    271682.07  0.039237316 
    9000    291.21735    -111630.2   -110818.56   -206.67011    271642.33  0.039243057 
    9100    290.72383   -111637.74   -110827.48    17.560842    271638.43   0.03924362 
    9200    306.35945   -111689.27   -110835.43    78.155645    271683.25  0.039237147 
    9300    289.83979   -111648.87   -110841.07    172.97408    271755.86  0.039226663 
    9400    288.46779   -111648.33   -110844.35   -83.561552       271825  0.039216685 
    9500    284.72286   -111638.89   -110845.35    -427.3379    271824.99  0.039216686 
    9600    287.41227   -111644.46   -110843.42    29.480043    271779.87  0.039223196 
    9700    292.41887   -111653.66   -110838.67   -63.851085    271695.84  0.039235328 
    9800    300.80784   -111668.49   -110830.12   -63.308942    271610.89  0.039247599 
    9900    289.48842   -111628.45   -110821.63    22.998451    271523.78  0.039260191 
   10000     291.4639   -111623.91   -110811.58    -130.1046    271457.57  0.039269766 
   10100    298.83887   -111632.96   -110800.08    182.30067     271399.3  0.039278197 
   10200    315.39275    -111667.6   -110788.58   -52.947303    271294.71   0.03929334 
   10300     310.8367   -111646.02    -110779.7   -106.71685    271145.64  0.039314943 
   10400    306.95694   -111625.18   -110769.68    284.28882    270951.53  0.039343109 
   10500    298.81615    -111594.9   -110762.08    310.60258    270779.97  0.039368035 
   10600    307.88465   -111614.66   -110756.56   -28.537072    270658.09  0.039385762 
   10700    303.44224   -111599.88   -110754.17     553.7694    270537.76  0.039403281 
   10800    298.89219   -111587.46   -110754.43    70.679046    270432.12  0.039418673 
   10900    301.84559    -111599.4   -110758.14    284.01481    270329.76  0.039433599 
   11000    315.00228   -111641.56   -110763.63    103.87044    270233.01  0.039447717 
   11100    308.17983   -111630.38   -110771.46    95.857237    270120.08  0.039464209 
   11200    302.42468   -111625.75   -110782.88    89.520511    270033.24  0.039476901 
   11300    303.94652   -111642.93   -110795.82   -295.24025    269946.94  0.039489521 
   11400    302.37682   -111651.47   -110808.73    103.61176    269879.26  0.039499423 
   11500    295.80612   -111645.02   -110820.59    487.55612    269775.89  0.039514559 
   11600    285.77336   -111625.67    -110829.2     190.2239    269660.53  0.039531464 
   11700    292.17759   -111649.42   -110835.11   -135.27701    269536.61  0.039549639 
   11800    293.94931   -111657.97   -110838.72   -67.391962    269413.28  0.039567742 
   11900    292.94887   -111656.89   -110840.43    125.18367    269334.31  0.039579345 
   12000    290.29838   -111648.55   -110839.47   -149.82782    269294.99  0.039585123 
   12100    281.89491   -111621.81   -110836.15   -210.82343    269259.21  0.039590383 
   12200     290.1096   -111638.07   -110829.52     -27.1912     269220.8  0.039596032 
   12300    299.08671   -111653.14   -110819.57   -72.738667    269172.81  0.039603092 
   12400    309.78803   -111670.69    -110807.3   -38.159744    269130.96   0.03960925 
   12500    302.78546   -111641.15   -110797.27   -281.97764    269089.21  0.039615396 
   12600    298.32289    -111619.5   -110788.06   -44.374971    269009.58  0.039627122 
   12700    299.13664   -111613.62    -110779.9   -262.35716    268874.36   0.03964705 
   12800    298.59817   -111605.35   -110773.14   -91.001395    268656.56  0.039679192 
   12900    318.42672   -111655.05   -110767.58     295.2162    268410.69  0.039715539 
   13000    301.58738   -111606.01   -110765.46   -3.8345177    268159.86  0.039752689 
   13100    309.20744   -111626.29   -110764.51   -292.82961    267925.42  0.039787473 
   13200    300.82028   -111603.64   -110765.24   -286.73259    267680.12  0.039823933 
   13300    314.60962   -111644.28   -110767.44    76.896713     267411.5  0.039863938 
   13400     301.8738   -111614.55   -110773.21    248.32713    267148.96  0.039903113 
   13500    304.32369   -111629.59   -110781.43    55.814918     266845.8  0.039948448 
   13600    300.35823   -111627.26   -110790.15    -208.2334    266541.67   0.03999403 
   13700    299.02126   -111634.71   -110801.32    47.310395    266256.31  0.040036893 
   13800    299.76229   -111648.16   -110812.71    45.115712    265992.82  0.040076553 
   13900    300.02854   -111658.63   -110822.44    100.27291    265735.73  0.040115325 
   14000    292.95911   -111647.34   -110830.85    -20.15836    265447.85  0.040158831 
   14100    287.26007    -111636.8   -110836.19   -82.598084    265148.28  0.040204203 
   14200    291.11884   -111649.71   -110838.35    19.367183    264858.01  0.040248265 
   14300     289.7682   -111646.33   -110838.73     251.5533    264581.63  0.040290309 
   14400    298.47297   -111669.36    -110837.5    151.54374    264299.43  0.040333327 
   14500    296.92838   -111660.12   -110832.56     23.74061    264058.55  0.040370121 
   14600    290.25739   -111635.43   -110826.47    226.21711    263840.61  0.040403467 
   14700    294.16517   -111638.37   -110818.52    116.21113    263643.18  0.040433724 
   14800    306.78893   -111660.97   -110805.93   -43.007528    263428.03  0.040466746 
   14900    307.29717   -111647.44   -110790.98   -174.83074     263198.9  0.040501976 
   15000    298.05921   -111606.09   -110775.38      173.167    262971.85  0.040536945 
   15100    304.19206   -111609.58   -110761.78     112.4316    262716.38  0.040576363 
   15200    305.46111   -111604.57   -110753.23    228.16642    262485.91   0.04061199 
   15300    307.02356   -111605.18   -110749.49   -98.907838    262290.06  0.040642316 
   15400    307.99509   -111606.93   -110748.53   -78.652314    262091.99   0.04067303 
   15500    302.07845   -111593.13   -110751.22     102.6681    261882.47  0.040705571 
   15600    314.10405   -111630.28   -110754.85    26.461027    261667.26   0.04073905 
   15700    294.45432   -111579.94   -110759.28   -40.792378    261415.99  0.040778208 
   15800    300.64527   -111601.93   -110764.01    58.056469    261100.72  0.040827445 
   15900    301.52094   -111608.86    -110768.5    121.68996    260739.61   0.04088399 
   16000     305.1378   -111624.85   -110774.42   -33.775682    260362.37  0.040943226 
   16100    303.92492   -111627.36    -110780.3   -87.707826    259953.94  0.041007555 
   16200    305.96335   -111640.19   -110787.45    342.18987     259546.5  0.041071928 
   16300    293.76612   -111614.27   -110795.53   -137.81544    259137.24  0.041136795 
   16400    299.89344   -111639.77   -110803.95    38.225911    258675.33  0.041210251 
   16500    308.22886   -111668.93   -110809.87   -122.52213    258137.84  0.041296059 
   16600    298.98124   -111648.42   -110815.14    25.747655    257567.99  0.041387424 
   16700    301.27851   -111658.66   -110818.98   -283.78605    256981.21  0.041481925 
   16800    295.17879   -111644.72   -110822.04   -195.02804    256385.84  0.041578254 
   16900    303.20285   -111667.34    -110822.3   -110.32511    255811.04  0.041671679 
   17000     311.1359   -111689.16      -110822    11.821187    255285.65   0.04175744 
   17100    295.73723   -111646.87   -110822.64   -69.731675    254805.26  0.041836166 
   17200    293.56879   -111641.09   -110822.89    318.74193    254327.24  0.041914799 
   17300    287.21837   -111622.25   -110821.76    266.30738    253843.12  0.041994738 
   17400    296.98738   -111647.81   -110820.09    116.38388    253369.42  0.042073252 
   17500    301.08063   -111656.06   -110816.93    182.83118    252914.27  0.042148968 
   17600    301.59742   -111654.03   -110813.46    483.94823    252501.25  0.042217912 
   17700    303.57685   -111655.77   -110809.69    321.02839    252151.14  0.042276531 
   17800     304.0675   -111654.41   -110806.96    378.29573    251826.76  0.042330988 
   17900    294.73084   -111624.99   -110803.56   -95.003794    251531.95  0.042380601 
   18000    307.08284   -111655.62   -110799.76   -201.51757    251206.19  0.042435561 
   18100    305.38576   -111648.57   -110797.45   -3.8001581    250884.84  0.042489915 
   18200    298.53354   -111625.56   -110793.53   -35.484944    250565.22  0.042544114 
   18300    301.12473   -111627.01   -110787.76    222.49233    250252.61  0.042597259 
   18400    302.54847   -111622.86   -110779.64    4.9306521    249918.16  0.042654266 
   18500    303.52065   -111614.59   -110768.66    227.72408    249570.09  0.042713753 
   18600    312.57727   -111627.86   -110756.69   -92.316623    249230.44  0.042771964 
   18700    314.39818    -111619.7   -110743.45    273.15327    248927.86  0.042823954 
   18800    311.72533   -111603.18   -110734.39    -202.6507    248697.47  0.042863626 
   18900    304.12856   -111577.39   -110729.76    262.24085    248487.89  0.042899778 
   19000     306.4788   -111583.58   -110729.41   -69.868923    248259.36  0.042939268 
   19100    313.53136    -111606.5   -110732.67    209.86943    248000.09  0.042984159 
   19200    307.64016   -111598.35   -110740.94   -85.406526    247732.18  0.043030645 
   19300    301.68836   -111595.62   -110754.79   -118.94987    247452.53  0.043079275 
   19400    302.46927   -111614.96   -110771.96   -30.734003    247167.44  0.043128964 
   19500    306.85775   -111642.29   -110787.06   -85.930894    246846.04  0.043185117 
   19600    298.30997   -111628.11    -110796.7    105.22063    246481.63  0.043248965 
   19700    291.65618   -111616.09   -110803.23    -18.19802    246119.92  0.043312526 
   19800    286.59396   -111605.67   -110806.92    196.02664    245780.71  0.043372303 
   19900    294.66016   -111630.51   -110809.27   -331.80786    245408.74  0.043438042 
   20000    299.59988   -111644.06   -110809.05    142.44434    244985.58  0.043513072 
   20100    295.47946   -111630.95   -110807.44    128.08828     244543.2  0.043591789 
   20200    290.79337   -111614.74   -110804.28    -343.5159    244141.69  0.043663478 
   20300    292.53197   -111614.18   -110798.87    106.36795    243732.21  0.043736834 
   20400    303.83386   -111640.87   -110794.06   -95.796542    243300.76  0.043814394 
   20500    291.77862   -111602.39   -110789.18    57.016388    242803.98   0.04390404 
   20600    296.23182   -111607.46   -110781.85    432.26496    242314.02  0.043992812 
   20700    294.73789   -111593.71   -110772.26    110.06844       241869  0.044073756 
   20800    304.76863   -111609.86   -110760.45   -52.101721     241447.8  0.044150642 
   20900    306.43715   -111603.12   -110749.07    110.33092    241031.05   0.04422698 
   21000    307.09413   -111592.96   -110737.08   -161.66862    240634.87  0.044299795 
   21100    304.61185   -111576.77    -110727.8    63.074528    240289.24  0.044363515 
   21200    319.86245   -111612.37   -110720.89     139.4597    239982.56  0.044420209 
   21300    307.26259   -111574.28   -110717.92    201.44721    239691.68  0.044474115 
   21400    315.09678   -111596.91   -110718.72   -282.69062    239384.97  0.044531098 
   21500    314.17362   -111602.67   -110727.05   -78.513008    239083.11  0.044587322 
   21600    311.25406   -111612.57   -110745.09    -151.8664    238814.52  0.044637468 
   21700    299.23471   -111602.89   -110768.91    281.71275    238570.42   0.04468314 
   21800    295.09662   -111610.65    -110788.2   -148.63406    238293.03  0.044735154 
   21900     298.7936   -111633.62   -110800.86    110.39474    237939.65  0.044801594 
   22000     298.6855   -111641.02   -110808.57    17.106325     237535.5   0.04487782 
   22100    305.47579   -111664.88   -110813.51   -74.335599    237136.27  0.044953373 
   22200    288.33629   -111620.12   -110816.51    25.175391    236769.84  0.045022945 
   22300    298.21768   -111649.08   -110817.93    270.24275    236435.84  0.045086546 
   22400    305.98842   -111671.78   -110818.97    63.012367    236066.91  0.045157008 
   22500    296.93876   -111646.78   -110819.19    526.32387    235696.35  0.045228004 
   22600    285.27799   -111613.19   -110818.11   -121.46442    235324.45   0.04529948 
   22700    296.76998   -111644.16   -110817.04     69.90851    234985.57  0.045364808 
   22800    303.74428   -111660.46   -110813.91    -14.85595    234676.58  0.045424538 
   22900    300.35238   -111648.38   -110811.28   -80.976576    234377.25  0.045482551 
   23000    306.04249   -111660.13   -110807.17   -100.40604    234114.79  0.045533541 
   23100    306.66722   -111659.91   -110805.21   -107.76497    233880.17  0.045579218 
   23200    304.98068   -111651.57   -110801.58    79.173651    233650.78  0.045623966 
   23300     298.6224   -111629.48    -110797.2   -9.2455277    233437.64  0.045665624 
   23400    299.91601   -111626.91   -110791.02   -137.04488    233271.53  0.045698142 
   23500    306.80821   -111639.48   -110784.38   -118.58105    233133.91  0.045725117 
   23600    309.33227   -111638.65   -110776.52    245.66761    232984.06  0.045754527 
   23700    299.10372   -111603.12    -110769.5   -500.36204     232806.5  0.045789423 
   23800    311.15173   -111629.86   -110762.66     294.7692    232583.14  0.045833398 
   23900    297.65605   -111586.02   -110756.44   -241.95141    232351.81  0.045879029 
   24000    307.93683   -111607.78   -110749.54   -310.92721    232117.73  0.045925296 
   24100    300.02526   -111579.36   -110743.17    455.00129    231886.75  0.045971042 
   24200    313.46499   -111610.77   -110737.12    -94.97253     231649.4  0.046018143 
   24300    319.73415   -111624.06   -110732.94   -260.40887    231386.02  0.046070526 
   24400    309.51151   -111594.68   -110732.05  -0.42116614    231111.55  0.046125239 
   24500    307.41257   -111590.88    -110734.1   -184.56264    230882.34   0.04617103 
   24600    316.97325   -111625.63   -110742.21    20.535553    230708.47  0.046205826 
   24700    302.11726   -111599.18   -110757.16   -346.50949    230501.83  0.046247249 
   24800    297.06714   -111604.58   -110776.64    236.47536    230213.95  0.046305079 
   24900    300.09807    -111629.8   -110793.41    238.55702    229901.02  0.046368107 
   25000    295.20291   -111628.51   -110805.77   -85.076434    229595.34  0.046429842 
   25100    285.17253    -111608.7   -110813.91   -140.64495    229294.93  0.046490672 
   25200    298.94189   -111650.94   -110817.77    -25.93753     228963.8  0.046557907 
   25300    304.20239    -111667.6   -110819.78    98.016777    228598.57  0.046632293 
   25400    291.68808   -111634.41   -110821.46    52.873314    228223.79  0.046708871 
   25500    293.81444   -111639.68    -110820.8    336.84931    227842.84  0.046786967 
   25600    305.76113   -111670.43   -110818.26   -397.38742    227460.12  0.046865689 
   25700    312.17105   -111683.07   -110813.03    262.67663    227068.12  0.046946596 
   25800    290.81861   -111616.83    -110806.3    280.23564    226721.46  0.047018378 
   25900    285.85824   -111593.35   -110796.65   -16.499337     226443.1  0.047076176 
   26000    296.30096   -111612.72   -110786.91    35.392707    226224.89  0.047121584 
   26100    297.99837   -111605.46   -110774.92    419.01204    226021.57  0.047163974 
   26200    304.47352   -111611.02   -110762.43    150.24001    225801.81  0.047209875 
   26300     302.9499   -111593.69   -110749.35   -350.49853    225576.98  0.047256929 
   26400    304.92609   -111591.57   -110741.72    597.39478    225374.22  0.047299444 
   26500    299.76567   -111572.83   -110737.37    200.39943    225220.44   0.04733174 
   26600    301.64189   -111577.77   -110737.07    83.029508    225100.12  0.047357039 
   26700    311.45414   -111607.51   -110739.47   -43.359987    225001.32  0.047377836 
   26800    308.97855   -111605.78   -110744.64   -169.69989    224903.32  0.047398479 
   26900    306.72983    -111605.8   -110750.92    100.69604    224807.67  0.047418647 
   27000    303.50915   -111602.21   -110756.31   -19.656465    224691.85  0.047443088 
   27100    303.25885   -111605.41   -110760.21   -315.57443    224578.53  0.047467028 
   27200    303.02746   -111609.48   -110764.93    387.12563    224461.23  0.047491834 
   27300    303.46357   -111614.56   -110768.79   -229.81749    224337.39   0.04751805 
   27400    312.22532   -111643.54   -110773.35   -425.33536    224164.88  0.047554618 
   27500    316.33829   -111659.58   -110777.92    289.58345    223960.19  0.047598081 
   27600    290.78635   -111594.12   -110783.68    222.91861    223726.95  0.047647703 
   27700    290.98571   -111600.57   -110789.57    74.442911    223456.97  0.047705271 
   27800    301.82561   -111636.22   -110795.02    259.22843    223183.28  0.047763772 
   27900    301.90464   -111640.97   -110799.54    318.63691    222936.75   0.04781659 
   28000    284.35356   -111595.37   -110802.86     -107.343    222688.88  0.047869815 
   28100    298.91973   -111636.66   -110803.55    607.46938    222425.02  0.047926601 
   28200    296.00537   -111629.91   -110804.92   -174.86656    222194.17  0.047976395 
   28300    305.42634   -111656.19   -110804.95    109.72681    221985.44  0.048021508 
   28400    298.88237   -111637.37   -110804.37    73.831528     221758.3  0.048070694 
   28500    305.71767   -111655.99   -110803.94   -334.35435     221492.2  0.048128447 
   28600     302.4739   -111645.64   -110802.63    167.88606    221204.06  0.048191138 
   28700    285.96077    -111597.9   -110800.92   -154.17529    220936.23  0.048249557 
   28800    283.24523   -111586.15   -110796.73    710.96226    220698.01  0.048301639 
   28900    297.52295   -111619.31    -110790.1   -208.41432    220472.49  0.048351046 
   29000    307.15106   -111639.62   -110783.57    -289.3637    220229.69  0.048404351 
   29100    306.07194   -111627.65   -110774.61   -54.563642    219944.42  0.048467133 
   29200    300.53504   -111601.98   -110764.37    304.55447    219655.44  0.048530896 
   29300    299.53897   -111590.75   -110755.92    183.45936    219404.27  0.048586454 
   29400     300.2587   -111587.49   -110750.65    478.71479    219203.41  0.048630973 
   29500    315.96955   -111626.79   -110746.16   -67.360608    219053.37  0.048664284 
   29600    307.90847   -111601.88   -110743.73    142.96519    218910.73  0.048695993 
   29700    309.46342   -111607.58   -110745.09   -109.50632    218766.27   0.04872815 
   29800    314.30153   -111625.95   -110749.97     42.73876    218584.27  0.048768721 
   29900    299.47941   -111593.03   -110758.37    70.790213    218418.26  0.048805788 
   30000    303.81575   -111616.43   -110769.68    8.7857094    218267.64  0.048839468 
   30100    301.74614   -111625.65   -110784.66   -229.80479    218157.84   0.04886405 
   30200    296.99105    -111629.8   -110802.07   -404.84049    218050.88  0.048888018 
   30300    306.36301   -111668.33   -110814.48    785.51099    217956.66  0.048909151 
   30400    302.67349   -111665.84   -110822.27   -17.903646    217903.25   0.04892114 
   30500     301.1013   -111666.02   -110826.83    255.82113    217857.38  0.048931441 
   30600    282.06376   -111614.77   -110828.64    -17.83459    217842.53  0.048934775 
   30700    294.72512   -111649.43   -110828.01    139.00663    217845.37  0.048934139 
   30800    301.13802   -111665.05   -110825.76   -327.52072    217885.56  0.048925112 
   30900    292.23668   -111636.07   -110821.58   -310.81097    217891.09   0.04892387 
   31000    284.21024   -111607.83   -110815.72    23.462629    217845.68  0.048934069 
   31100    304.32262   -111657.04   -110808.87   -137.08259    217788.28  0.048946966 
   31200    303.87351   -111647.06   -110800.15   -134.50469    217743.33   0.04895707 
   31300    301.05336   -111630.73   -110791.68   -263.91851    217680.42  0.048971218 
   31400    300.95477   -111622.12   -110783.34   -155.65179    217583.24  0.048993089 
   31500    312.35762   -111646.59   -110776.03    322.86386    217456.76  0.049021587 
   31600    315.98972   -111650.33   -110769.65     84.73378    217336.64  0.049048681 
   31700    306.63644   -111620.03   -110765.42   -203.95971    217211.77  0.049076877 
   31800     305.2164   -111611.61   -110760.96   -369.11344    217077.71  0.049107185 
   31900    312.35873   -111630.13   -110759.57    214.29644    216952.57  0.049135512 
   32000    304.91906   -111609.15   -110759.33   -71.193383    216821.03  0.049165319 
   32100    307.81313   -111621.54   -110763.65    130.15169    216667.39  0.049200183 
   32200    311.35528   -111642.17   -110774.41   -246.42103    216492.69  0.049239887 
   32300    296.16303   -111617.89   -110792.46    101.14903    216312.89  0.049280814 
   32400    297.96427   -111641.95   -110811.51   -101.00078    216152.94  0.049317282 
   32500    297.53686   -111654.88   -110825.63   -140.59176    215988.67  0.049354791 
   32600    296.21658   -111661.56   -110835.99   -32.532502    215818.65  0.049393671 
   32700    291.20776   -111653.38   -110841.77   -195.08136    215650.94  0.049432085 
   32800    298.18864   -111674.44   -110843.37    344.70104    215463.96  0.049474982 
   32900    296.61591   -111668.93   -110842.24   0.95053191    215297.44  0.049513247 
   33000    295.65277   -111661.69   -110837.69    188.89052    215122.16   0.04955359 
   33100    291.83843   -111641.82   -110828.45   -160.88743    214967.59  0.049589221 
   33200    295.82378   -111641.49   -110817.02   -2.6057899     214810.4  0.049625508 
   33300    295.99113   -111629.63   -110804.69   -67.922803    214650.41  0.049662497 
   33400    292.65025   -111609.91   -110794.28    169.78649    214477.76  0.049702474 
   33500    296.85686   -111612.53   -110785.18   -312.94673    214316.52  0.049739868 
   33600    319.80155   -111668.82   -110777.51   -33.396827    214173.43  0.049773099 
   33700     305.1024   -111623.52   -110773.18   -339.87217    214038.13  0.049804563 
   33800    308.92879   -111633.04   -110772.04   -267.86713     213883.6  0.049840546 
   33900    296.43867   -111598.44   -110772.24   -152.34545    213692.72  0.049885065 
   34000    301.79229   -111616.83   -110775.71    152.96115    213488.23  0.049932848 
   34100    309.36816   -111642.59   -110780.37   -31.314992    213291.44  0.049978918 
   34200    305.86394   -111639.91   -110787.45     74.07718    213139.41  0.050014568 
   34300    311.91156    -111664.5   -110795.19    108.79471    213026.13  0.050041164 
   34400    303.92646   -111652.78   -110805.72   -351.32357    212929.04  0.050063981 
   34500    299.19307   -111653.16    -110819.3   -159.96731    212821.81  0.050089206 
   34600    292.33336   -111651.28   -110836.53   -254.35851    212705.59  0.050116575 
   34700     288.0397   -111654.36   -110851.57    90.678758    212605.38  0.050140196 
   34800    290.72015   -111672.04   -110861.79    277.83128    212532.86  0.050157305 
   34900    280.99964    -111650.2   -110867.04   -279.40495    212466.91  0.050172874 
   35000    295.32731   -111690.58   -110867.49    306.97847    212410.36  0.050186232 
   35100    291.38636   -111677.52   -110865.41   -148.57743    212354.85  0.050199351 
   35200    299.41988    -111695.6    -110861.1    92.896257    212291.06  0.050214435 
   35300    287.23936   -111655.86    -110855.3    6.7295148    212241.26  0.050226215 
   35400    290.27213   -111657.74   -110848.74   -122.98992    212188.07  0.050238806 
   35500    283.03265   -111629.16   -110840.34   -264.68926    212120.91  0.050254713 
   35600    293.40194   -111651.14   -110833.41   -184.24761    212028.08  0.050276715 
   35700    297.60895   -111655.32   -110825.87    295.92742    211920.48  0.050302241 
   35800    303.15109    -111661.1    -110816.2   -39.412149    211817.65  0.050326662 
   35900    306.38478   -111661.15   -110807.24    14.479788    211728.59  0.050347831 
   36000    295.93075   -111623.61   -110798.83    150.20159    211607.33  0.050376682 
   36100    296.52887    -111618.3   -110791.86   -270.84771    211455.11  0.050412949 
   36200    309.34422   -111646.76    -110784.6    426.26852    211291.34  0.050452023 
   36300    302.77944   -111621.42   -110777.56    71.551342    211149.05  0.050486021 
   36400    303.66408   -111618.36   -110772.03   -414.95189    211027.32  0.050515144 
   36500    299.87017   -111605.28   -110769.52    -242.5213    210895.19  0.050546793 
   36600    305.41964   -111619.76   -110768.54    235.54395    210734.43  0.050585352 
   36700     301.3991   -111610.36   -110770.34     217.2401    210556.77  0.050628035 
   36800     298.3727   -111604.95   -110773.37    39.329356    210374.06  0.050672006 
   36900    294.16488   -111599.79   -110779.93    80.284315    210194.32  0.050715334 
   37000    306.84473   -111643.93   -110788.73    225.92708    210017.36  0.050758068 
   37100    294.30718   -111622.68   -110802.43    173.31639     209843.4  0.050800145 
   37200    296.01086   -111647.23   -110822.23   -44.727343    209656.76   0.05084537 
   37300    291.08213   -111651.49   -110840.22    117.05552    209477.45  0.050888893 
   37400    297.56789   -111681.36   -110852.02   -116.93484    209277.67   0.05093747 
   37500    286.36436   -111656.54   -110858.43    3.2876584    209037.96  0.050995883 
   37600    286.26726    -111656.2   -110858.36   -52.332028    208809.33  0.051051721 
   37700    292.10265   -111668.68   -110854.57    -170.2548    208619.44  0.051098188 
   37800     286.4828    -111646.2   -110847.75   -106.11221    208434.52  0.051143521 
   37900    299.69164   -111672.63   -110837.37    198.58973     208251.2  0.051188543 
   38000    294.70952   -111649.24   -110827.86    29.736196    208089.45  0.051228331 
   38100     302.6038   -111662.45   -110819.07    517.10752    207930.93  0.051267386 
   38200    303.01837   -111656.96   -110812.43    208.16857    207783.25  0.051303824 
   38300    298.43708    -111638.1   -110806.34    305.63488     207601.6  0.051348716 
   38400    294.97841   -111623.47   -110801.35   -490.71326    207415.29  0.051394838 
   38500      307.073   -111652.61   -110796.78    90.999794    207216.99  0.051444023 
   38600    305.57561   -111644.71   -110793.06    216.95182    207024.02  0.051491973 
   38700    296.85064   -111617.42   -110790.08   -10.521941    206835.27  0.051538963 
   38800    312.49784   -111657.87   -110786.92   -55.454113    206647.47  0.051585801 
   38900    295.47529   -111609.14   -110785.63   -224.87235    206497.31  0.051623314 
   39000    300.67037   -111622.51   -110784.53   -143.80576    206377.36  0.051653317 
   39100    303.57818   -111631.15   -110785.06   -96.565708     206250.3  0.051685139 
   39200    314.99177   -111664.06   -110786.16    -416.6804    206116.82   0.05171861 
   39300    301.54095   -111630.74   -110790.33    -447.3227    205970.53  0.051755343 
   39400    300.63747   -111637.99    -110800.1   -166.29753    205825.03  0.051791929 
   39500    287.52411   -111617.85    -110816.5   -467.21474    205681.02  0.051828193 
   39600     290.2159   -111645.31   -110836.46    172.92886    205556.25   0.05185965 
   39700    289.06504   -111658.87   -110853.23    165.88536     205427.9  0.051892053 
   39800    292.35763   -111678.09   -110863.28    397.72143    205304.37  0.051923276 
   39900     286.5245   -111665.05   -110866.49    -24.22198    205206.09  0.051948142 
   40000    283.65059    -111655.8   -110865.25    84.963112    205128.09  0.051967896 
   40100     292.2699   -111674.27    -110859.7    262.93255    205084.63   0.05197891 
   40200    291.45473   -111665.24   -110852.94    192.50025    205058.88  0.051985437 
   40300     291.0718   -111655.65   -110844.41   -62.972512    205047.71  0.051988269 
   40400    301.45383   -111675.16   -110834.99   -180.18223    205019.94  0.051995309 
   40500    298.80417   -111659.32   -110826.54    162.36071    204985.25  0.052004109 
   40600     304.6086      -111668   -110819.04   -108.92266    204952.68  0.052012373 
   40700    293.96479   -111631.36   -110812.06    23.532848    204869.52  0.052033487 
   40800    297.92161   -111636.78   -110806.45    111.69917    204764.23  0.052060241 
   40900    299.21421   -111634.38   -110800.45   -208.55749    204673.72  0.052083263 
   41000     293.1152   -111612.91   -110795.98    80.937452    204625.41   0.05209556 
   41100    299.02094   -111624.14   -110790.76     308.9605    204619.06  0.052097178 
   41200    311.56215   -111655.23   -110786.89    441.18763    204592.81  0.052103861 
   41300    295.67301   -111607.35    -110783.3   -242.34552    204528.34  0.052120285 
   41400     294.2616   -111601.16   -110781.04    85.273762    204408.97  0.052150722 
   41500    300.83456   -111617.83   -110779.39   -242.75876    204246.54  0.052192197 
   41600    299.70098   -111614.08   -110778.79    368.63456    204081.15  0.052234493 
   41700    310.16144   -111642.64    -110778.2   -262.06769    203930.93  0.052272969 
   41800    301.54392   -111618.61   -110778.19    72.231787    203789.49   0.05230925 
   41900    296.84775   -111605.99   -110778.66    327.96869    203646.36  0.052346014 
   42000    305.73321   -111629.69   -110777.59   -94.077457    203514.86  0.052379837 
   42100    314.52727   -111654.03   -110777.42    1.0412123    203354.91  0.052421038 
   42200    310.80914   -111643.31   -110777.06    97.489547    203206.95  0.052459206 
   42300    295.70994   -111602.48   -110778.32    41.718506    203078.94  0.052492273 
   42400    309.84997   -111645.85   -110782.28   -355.47593     202964.7  0.052521819 
   42500    294.50624   -111608.86   -110788.06   -63.166117     202824.9  0.052558022 
   42600    302.18496   -111637.42   -110795.21   -291.59443    202650.15  0.052603343 
   42700    302.79403    -111647.8    -110803.9    51.480073    202440.34  0.052657863 
   42800    295.67866   -111636.19   -110812.11   -245.39098    202250.18  0.052707372 
   42900    293.22416   -111636.85   -110819.62    290.94483    202111.98  0.052743412 
   43000    295.15916   -111648.56   -110825.93    39.148786    202030.07  0.052764796 
   43100    293.82016   -111649.64   -110830.75   -475.19152    201975.32  0.052779098 
   43200    287.42813   -111634.48    -110833.4    185.44385    201885.81  0.052802499 
   43300    301.07654   -111673.07   -110833.95   -139.28307    201771.47  0.052832422 
   43400    292.59611    -111648.8   -110833.32   -157.41203    201641.28  0.052866534 
   43500    287.49332   -111630.47   -110829.21   -52.628856    201512.02  0.052900443 
   43600    282.43936   -111609.23   -110822.05   -242.83434    201372.87  0.052936999 
   43700    300.63047   -111649.14   -110811.26   -269.34148    201216.87   0.05297804 
   43800    299.77558   -111635.89    -110800.4   -50.341821     201058.1  0.053019875 
   43900    304.67354   -111637.65    -110788.5    62.707947    200909.97  0.053058966 
   44000    300.80903   -111616.25   -110777.88   -50.239945    200785.41  0.053091881 
   44100    301.32993    -111608.1   -110768.28   -545.62086    200665.89  0.053123504 
   44200    300.88607   -111601.27   -110762.69     135.5698    200524.86  0.053160866 
   44300    310.06921   -111622.91   -110758.73    292.85919     200390.1  0.053196616 
   44400    324.50916   -111661.05   -110756.63   -292.52342    200296.81  0.053221394 
   44500    317.74504   -111646.82   -110761.24    311.88958    200240.89  0.053236255 
   44600    309.18276   -111631.85   -110770.14   -45.696282    200233.32  0.053238268 
   44700    300.69447   -111620.56    -110782.5   -579.00297    200233.05   0.05323834 
   44800    308.14303   -111655.24   -110796.43   -231.06745    200228.53  0.053239544 
   44900    293.25703   -111628.05   -110810.73   -1.3115559    200249.29  0.053234024 
   45000    292.56945   -111637.03   -110821.62    359.23258    200288.61  0.053223571 
   45100    297.49448   -111655.88   -110826.75    168.58918    200330.21  0.053212521 
   45200    291.16665   -111639.54   -110828.04   -144.30034    200362.74   0.05320388 
   45300    292.80381   -111643.95   -110827.88    104.53645    200366.04  0.053203006 
   45400    296.93529   -111653.88   -110826.31      -237.22    200331.94   0.05321206 
   45500    308.66324   -111684.24   -110823.97    167.90857    200296.63  0.053221441 
   45600    284.64147   -111614.34   -110821.02   -62.240096    200271.17  0.053228208 
   45700    294.55981   -111636.33   -110815.37   -198.27793    200221.12  0.053241514 
   45800    292.65908   -111626.39   -110810.73   -410.48269    200114.82  0.053269794 
   45900    303.72699    -111651.7    -110805.2   -447.83422    199951.25  0.053313371 
   46000     291.0036   -111608.97   -110797.93    488.28481    199747.45  0.053367766 
   46100    309.01486   -111650.93   -110789.69    457.38144    199544.26  0.053422109 
   46200    310.54548   -111646.53   -110781.02   -437.70716     199370.2   0.05346875 
   46300    309.39921   -111636.01    -110773.7   -4.1485148    199214.84  0.053510447 
   46400    307.85146   -111625.69   -110767.69    7.6630815    199053.79  0.053553741 
   46500    292.88098   -111580.43   -110764.15    55.272559    198908.21  0.053592938 
   46600    295.15124   -111583.19   -110760.58   -178.44327    198759.01  0.053633168 
   46700    304.46603   -111606.74   -110758.17    30.658232    198587.08  0.053679602 
   46800    307.31237   -111613.83   -110757.33   -69.332745    198415.32   0.05372607 
   46900    301.69478   -111600.08   -110759.24   -49.964869    198271.64  0.053765004 
   47000    298.47114   -111595.78   -110763.92    118.37266    198133.47  0.053802498 
   47100    301.04644   -111612.07   -110773.03   -96.049875    198030.76  0.053830403 
   47200    302.89202   -111632.95   -110788.77    86.876183    197942.68  0.053854355 
   47300    299.55662   -111641.23   -110806.35   -471.10014    197842.96  0.053881499 
   47400    289.94074   -111628.24   -110820.16   -285.12387    197708.87  0.053918042 
   47500    294.06138    -111647.9   -110828.34     67.45241    197576.66  0.053954122 
   47600    292.89543   -111649.84   -110833.53    398.26362    197459.14  0.053986233 
   47700    279.03594   -111612.95   -110835.26   -419.77896    197354.62  0.054014826 
   47800    286.15981   -111629.93   -110832.39    210.75551    197266.11  0.054039061 
   47900    283.85509   -111618.66   -110827.54   -292.13312    197163.71  0.054067127 
   48000    290.34579   -111628.24   -110819.03    261.39616    197038.32  0.054101533 
   48100    295.24767   -111630.12   -110807.24   -325.72928    196922.98  0.054133223 
   48200     291.8535   -111608.92    -110795.5    711.77819     196804.7  0.054165757 
   48300    300.96816   -111622.46   -110783.64    -47.83767    196690.05  0.054197328 
   48400    303.31112   -111621.09   -110775.75    47.779332    196584.72  0.054226368 
   48500     296.1758   -111596.11   -110770.65   -360.49352    196508.87  0.054247299 
   48600    303.88146   -111614.34   -110767.41    234.25953    196447.42  0.054264267 
   48700    299.25692   -111600.18   -110766.13   -297.12848    196396.81  0.054278251 
   48800    323.94884   -111668.72   -110765.85    387.48238    196342.37  0.054293302 
   48900    308.43031   -111626.98   -110767.36   -40.678349    196271.49  0.054312908 
   49000    302.65035   -111614.33   -110770.83    340.90639    196163.66  0.054342763 
   49100     312.7346   -111647.46   -110775.86    93.508152    196049.86  0.054374308 
   49200     305.8205    -111633.7   -110781.36   -335.82613    195913.97  0.054412022 
   49300     309.6149   -111650.91   -110787.99    82.418753    195748.39  0.054458049 
   49400    295.83807   -111618.43   -110793.91   -228.46744    195597.54  0.054500048 
   49500    294.63672   -111621.19   -110800.02   -91.275918       195461  0.054538119 
   49600    286.77611   -111604.96    -110805.7   -50.865443    195343.24  0.054570997 
   49700    299.46107   -111645.11   -110810.49   -46.996657    195207.85  0.054608847 
   49800     295.6287   -111638.28   -110814.34    48.843671    195058.02  0.054650792 
   49900    299.07268   -111651.62   -110818.09    224.85849    194889.71  0.054697991 
   50000    292.10676   -111635.65   -110821.53    222.99456    194703.14  0.054750402 
   50100    288.85419   -111631.02   -110825.97    291.32977    194524.02  0.054800819 
   50200    292.18551   -111646.27   -110831.93    453.01257    194358.19  0.054847575 
   50300    287.24316   -111641.23   -110840.66    130.91991    194229.35  0.054883958 
   50400    292.46719    -111662.4   -110847.28    25.234772     194138.6  0.054909612 
   50500    297.11532   -111680.73   -110852.66    46.768947    194070.48  0.054928887 
   50600    288.59689   -111657.91   -110853.58   -13.031939    194025.95  0.054941494 
   50700    292.56875   -111668.18   -110852.78    305.97523    193989.39  0.054951848 
   50800    295.80797   -111673.02   -110848.58    493.65621    193937.72  0.054966487 
   50900    296.35693   -111665.67   -110839.71    287.30392    193887.55  0.054980712 
   51000    292.39013    -111643.9      -110829    160.49998    193854.03  0.054990217 
   51100    300.51179   -111654.52   -110816.97    277.88824    193830.88  0.054996784 
   51200    306.75778   -111660.78   -110805.82    288.38301    193778.23  0.055011727 
   51300    300.79868   -111633.68   -110795.33   -250.25567    193722.53  0.055027546 
   51400    305.01818   -111635.21    -110785.1    23.007831    193680.19  0.055039576 
   51500    303.80352   -111622.46   -110775.74    105.64595    193618.08  0.055057232 
   51600    310.61207   -111634.56   -110768.86    96.827582    193545.04  0.055078009 
   51700    298.59693   -111595.84   -110763.63    12.985899    193441.12  0.055107597 
   51800     302.8255    -111604.3   -110760.31   -150.21548    193332.51  0.055138556 
   51900    313.31114   -111632.15   -110758.93   -451.89192    193227.71  0.055168461 
   52000    303.39826   -111604.58   -110758.99    5.0078448    193141.63  0.055193049 
   52100    301.31671   -111600.83   -110761.05   -199.77076    193064.36   0.05521514 
   52200    303.22871   -111609.83   -110764.72   -127.06424    192955.43   0.05524631 
   52300    305.86227   -111623.85    -110771.4   -97.774387    192802.49  0.055290133 
   52400    304.09426   -111628.59   -110781.06   -111.18307     192629.9  0.055339672 
   52500    294.89452   -111616.02   -110794.14   -151.40552    192456.15  0.055389632 
   52600    286.98416   -111612.78   -110812.94    207.69273    192312.27  0.055431072 
   52700      301.276   -111669.12   -110829.45    560.56216    192172.16  0.055471486 
   52800     284.2438   -111632.22   -110840.02   -382.73521     192025.5  0.055513853 
   52900    277.27648   -111617.29   -110844.51   -174.21722    191859.43  0.055561906 
   53000    284.37124   -111636.24   -110843.68   -288.36011    191662.71  0.055618933 
   53100    296.88537   -111666.37   -110838.94    385.95068    191449.84  0.055680774 
   53200    289.58462   -111641.35   -110834.26    317.23524     191239.9    0.0557419 
   53300     295.2177   -111650.89    -110828.1   -147.29551    191043.99  0.055799061 
   53400    299.56855   -111656.55   -110821.64   -135.44113    190851.93  0.055855213 
   53500    289.94817   -111622.91    -110814.8   -227.61818    190687.42  0.055903402 
   53600    306.41782   -111662.46   -110808.45   -110.73236    190531.74   0.05594908 
   53700    302.49829    -111647.7   -110804.62    -78.88327    190365.29     0.055998 
   53800    296.53815   -111626.13   -110799.66    -22.53283    190186.47   0.05605065 
   53900    305.31408   -111644.85   -110793.92    228.11357    190011.98  0.056102123 
   54000    309.55115   -111652.78   -110790.05   -465.95386    189861.33  0.056146637 
   54100    307.90311   -111645.41   -110787.27   -213.59859    189699.26  0.056194607 
   54200    302.71825   -111628.96   -110785.26    337.60394    189532.47   0.05624406 
   54300     306.0074   -111637.48   -110784.62   -449.02608    189380.94  0.056289061 
   54400    301.16441   -111624.88   -110785.52    75.849025    189219.71  0.056337023 
   54500    304.75474   -111637.83   -110788.46    80.728304    189037.04  0.056391463 
   54600    309.90066   -111655.12    -110791.4   -132.95355    188838.97  0.056450611 
   54700    293.19911   -111610.85   -110793.69    210.33054    188653.02  0.056506254 
   54800    297.56249   -111624.24   -110794.92    115.71108    188468.46  0.056561588 
   54900    292.04931   -111608.95   -110794.99   -71.382021    188289.83  0.056615248 
   55000    310.99422   -111662.39   -110795.63    302.73045    188140.57  0.056660163 
   55100    296.82507   -111624.79   -110797.52    169.71406    188011.83   0.05669896 
   55200    294.31183   -111618.12   -110797.86   -126.89675    187904.06  0.056731481 
   55300    299.48822   -111633.78   -110799.08    66.698753    187810.41  0.056759769 
   55400    293.64251   -111617.27   -110798.87   -595.79494       187725  0.056785594 
   55500    300.25684   -111635.39   -110798.56    637.35716    187599.11  0.056823698 
   55600    293.46107   -111616.11   -110798.22    214.27405    187450.38  0.056868785 
   55700     313.2343   -111670.24   -110797.24    208.93676    187304.53  0.056913068 
   55800    309.30995   -111659.48   -110797.42    249.11868    187174.48  0.056952611 
   55900    302.19229   -111639.95   -110797.72    362.61034    187053.92  0.056989318 
   56000    295.06551   -111621.03   -110798.66   -143.36941    186947.51  0.057021756 
   56100    307.85391   -111657.48   -110799.47    175.40398    186842.44  0.057053822 
   56200    301.63519   -111642.66   -110801.98   -481.47079    186756.57  0.057080056 
   56300    302.23556   -111648.03   -110805.68    29.735711    186665.52  0.057107897 
   56400    299.17715    -111645.1   -110811.27   -3.2715012    186610.15  0.057124843 
   56500    312.41828   -111689.09   -110818.37   -103.57593    186595.57  0.057129306 
   56600     297.3751   -111654.76   -110825.96    294.77865    186582.21  0.057133396 
   56700    299.00568    -111667.3   -110833.95  0.013579508    186577.74  0.057134765 
   56800    294.23007   -111660.85   -110840.81   -135.52064     186590.9  0.057130736 
   56900    301.88368   -111687.34   -110845.97    1.2180112     186599.4  0.057128132 
   57000    287.90668   -111651.67   -110849.26    459.71245    186608.79  0.057125258 
   57100    293.81529   -111667.73   -110848.85    -413.2367    186646.54  0.057113703 
   57200    277.19618   -111620.56      -110848    -229.3304    186721.35  0.057090822 
   57300    296.38695   -111669.15    -110843.1   -47.319723    186792.44  0.057069094 
   57400    291.56146   -111646.22   -110833.62   -20.616914    186832.86  0.057056748 
   57500    295.74096   -111642.51   -110818.26   -242.19567    186845.08  0.057053016 
   57600    297.37847   -111628.66   -110799.85    14.054094    186820.85  0.057060415 
   57700    300.30139   -111621.66    -110784.7   -316.12435    186797.29  0.057067611 
   57800    312.49142   -111646.14   -110775.21    287.89293    186780.68  0.057072686 
   57900    298.15342   -111600.51   -110769.54    -498.4564    186778.39  0.057073386 
   58000    301.16018   -111605.04   -110765.69   -96.139241    186759.31  0.057079217 
   58100    299.77838   -111598.97   -110763.47    37.018396    186703.39  0.057096315 
   58200    300.16946   -111597.35   -110760.76    519.49613    186633.41  0.057117724 
   58300    305.46861   -111612.06    -110760.7   -569.10379    186561.99  0.057139589 
   58400    310.40071   -111628.07   -110762.96    216.15277    186485.03   0.05716317 
   58500    303.71042   -111612.26    -110765.8    166.20367    186410.24  0.057186105 
   58600    299.78735    -111605.8   -110770.27    295.99651    186352.62  0.057203785 
   58700    302.36666   -111620.14   -110777.43   -190.85683    186323.21  0.057212814 
   58800    298.03367   -111617.58   -110786.95   -142.05811    186311.15  0.057216519 
   58900     297.0378   -111626.07   -110798.21   -166.16785    186290.64  0.057222818 
   59000    303.34683   -111658.28   -110812.83    182.91366    186241.45  0.057237932 
   59100    296.55302   -111653.13   -110826.62   -1.8051707    186160.14  0.057262932 
   59200    293.50341   -111655.86   -110837.85   -33.208371    186078.59  0.057288029 
   59300    288.51142   -111648.48   -110844.38   -230.89439    186004.95  0.057310708 
   59400    295.59342   -111669.95   -110846.11   -99.362569    185923.65   0.05733577 
   59500    300.57191   -111683.83   -110846.12    220.88283    185837.19  0.057362444 
   59600    299.24456   -111677.55   -110843.54    448.23031    185748.12  0.057389951 
   59700    289.14543    -111644.1   -110838.23   -236.35177    185659.77   0.05741726 
   59800    304.49259    -111681.3   -110832.66   -66.754854    185545.65  0.057452576 
   59900    290.01156    -111636.6   -110828.32    663.08521    185414.36  0.057493256 
   60000    307.28241    -111680.2   -110823.79     88.82121    185294.69  0.057530387 
   60100    292.35896   -111635.46   -110820.64   -321.26311    185192.99  0.057561981 
   60200    296.23256   -111642.97   -110817.36    3.0593275    185078.99  0.057597436 
   60300    301.43634   -111653.54   -110813.42    6.2897565     184911.8  0.057649513 
   60400    292.18111   -111621.74   -110807.41    249.26038    184733.07   0.05770529 
   60500    302.08971   -111642.82   -110800.88    195.30881    184589.96  0.057750029 
   60600     296.3034   -111619.45   -110793.63    191.82877    184527.08  0.057769708 
   60700    294.95688   -111607.31   -110785.24   -56.244169    184508.15  0.057775635 
   60800    297.10922   -111606.99   -110778.93   -602.95128    184495.58   0.05777957 
   60900    297.35904   -111602.37   -110773.61     208.1002    184451.11  0.057793501 
   61000    312.28442   -111639.05   -110768.69    121.74273    184397.51  0.057810301 
   61100    313.42538   -111639.53      -110766    6.3004532    184395.55  0.057810914 
   61200    294.77683   -111587.66    -110766.1    157.76831    184428.01   0.05780074 
   61300    311.62363   -111635.87   -110767.36   -89.002619    184448.86  0.057794206 
   61400     305.9964   -111622.63    -110769.8   -258.91807    184445.88  0.057795138 
   61500    307.96614   -111635.42    -110777.1    616.95823    184416.71  0.057804282 
   61600    295.23469   -111611.89   -110789.06   -197.84833    184405.22  0.057807884 
   61700    293.20229   -111625.25   -110808.08    220.18938    184391.77  0.057812099 
   61800    282.86452   -111615.45   -110827.09   -102.80564    184348.44  0.057825687 
   61900    290.68752   -111651.83   -110841.66    43.611447    184267.75  0.057851011 
   62000     308.5266   -111708.65   -110848.77   -416.36224    184207.37  0.057869972 
   62100     307.6318   -111709.31   -110851.93    288.58076       184178    0.0578792 
   62200      299.297   -111686.54   -110852.38   -30.170705     184148.5  0.057888473 
   62300    288.42912   -111654.48   -110850.61    97.422723     184084.5  0.057908599 
   62400    280.78417   -111628.79   -110846.23    80.103594    184026.22  0.057926938 
   62500    291.71618   -111651.16   -110838.13   -119.94453    183980.57  0.057941312 
   62600    290.34026   -111636.93   -110827.74   -169.09049    183961.69  0.057947257 
   62700     302.4032   -111659.71   -110816.89   0.79464613    183946.95    0.0579519 
   62800    299.88776   -111643.15   -110807.34   -204.50221    183911.07  0.057963208 
   62900    295.36057   -111623.22   -110800.03   -319.51265     183856.9  0.057980285 
   63000    303.66022   -111639.72    -110793.4   -182.58413     183790.1  0.058001359 
   63100    306.65814   -111643.31   -110788.63   -366.64423    183716.19  0.058024692 
   63200    300.30088   -111623.12   -110786.17    444.34397    183651.13  0.058045248 
   63300    306.58511   -111639.47      -110785    75.238582    183606.36  0.058059401 
   63400    303.78578   -111631.83   -110785.16   -385.61225    183562.85  0.058073165 
   63500    304.24231   -111633.81   -110785.87    595.11745    183515.54  0.058088136 
   63600    304.89388   -111637.55   -110787.79     20.57344    183469.87  0.058102594 
   63700    301.81144   -111630.44   -110789.27    15.200777    183399.12  0.058125008 
   63800    294.83166    -111613.8   -110792.09   -124.88869    183321.99  0.058149463 
   63900    296.51255   -111620.12   -110793.72    184.52176    183276.92  0.058163762 
   64000    294.20744    -111613.9   -110793.93    307.55248    183285.48  0.058161046 
   64100     290.9705   -111602.41   -110791.45   -116.23336    183313.59  0.058152127 
   64200    304.66361   -111637.91    -110788.8    171.65782    183332.94  0.058145992 
   64300    304.57388   -111631.01   -110782.14   -222.28154    183330.16  0.058146871 
   64400    304.10173   -111618.78   -110771.23    84.971867    183283.81  0.058161578 
   64500     304.3586   -111603.44   -110755.18   -440.11164    183220.75  0.058181594 
   64600    308.44973   -111596.86    -110737.2   -378.64061    183174.51  0.058196281 
   64700    311.03057   -111588.34   -110721.48    7.8847324    183115.17   0.05821514 
   64800    311.55843   -111580.14   -110711.81    240.86667     183068.7  0.058229917 
   64900    317.06376   -111592.81   -110709.13   -344.73262     183047.2  0.058236757 
   65000    315.72932   -111593.13   -110713.17   -15.592165    183053.03  0.058234904 
   65100    317.18879   -111606.08   -110722.06   -26.882198    183057.21  0.058233574 
   65200    310.28575   -111598.68    -110733.9    188.35226    183049.29  0.058236093 
   65300    308.24915   -111606.51    -110747.4   -97.753086    183059.34  0.058232896 
   65400    311.68682   -111628.49    -110759.8    99.737298    183051.69  0.058235329 
   65500    301.38995   -111608.81   -110768.82   -165.50041    183026.41  0.058243371 
   65600     305.8724   -111628.41   -110775.93   -386.86352    182993.06  0.058253987 
   65700    296.66354   -111608.78   -110781.97   -219.10176    182962.46  0.058263729 
   65800     293.6384   -111604.91   -110786.52   -187.81922    182898.85  0.058283993 
   65900     294.6227   -111611.99   -110790.86    258.06831    182804.74  0.058313998 
   66000    301.17489   -111634.04   -110794.64     427.9182    182721.54  0.058340552 
   66100    294.87524   -111619.45   -110797.61    188.53327    182663.66  0.058359037 
   66200    294.26711   -111620.81   -110800.67   -28.423798     182599.7   0.05837948 
   66300    292.21144   -111618.53   -110804.12   -347.62351    182552.25  0.058394655 
   66400    287.62741   -111608.33   -110806.69   -348.01712    182526.49  0.058402893 
   66500    296.48991   -111635.75   -110809.42     -190.987    182505.09  0.058409743 
   66600    302.09036   -111654.18   -110812.23   -55.028387    182502.23  0.058410659 
   66700     297.2432   -111643.55   -110815.12    38.046037    182515.32   0.05840647 
   66800     313.3172    -111692.2   -110818.96     141.8681    182544.28  0.058397203 
   66900    295.18972   -111647.18   -110824.47   -424.37579    182548.54  0.058395839 
   67000    302.08898   -111673.46   -110831.52   -409.40272    182546.19  0.058396591 
   67100    293.69384   -111656.86   -110838.31   -198.75957    182502.47  0.058410581 
   67200    296.32105   -111669.86   -110843.99   -301.82913    182456.67  0.058425242 
   67300    276.86793   -111619.59   -110847.94   -327.99686    182421.46  0.058436522 
   67400    289.16569   -111656.39   -110850.46    10.742604    182406.64  0.058441268 
   67500     299.8255   -111685.42   -110849.79   -294.49866    182389.98  0.058446606 
   67600     299.6761   -111680.68   -110845.46    3.1700568     182344.6  0.058461152 
   67700    296.90104   -111666.28    -110838.8    -158.7846    182286.13  0.058479903 
   67800    290.39422   -111637.95   -110828.61     94.39364    182212.84  0.058503427 
   67900    295.77848   -111638.72   -110814.36   -310.98274    182149.11  0.058523896 
   68000    306.60441   -111654.16   -110799.63   -155.71578    182087.88  0.058543573 
   68100    298.13915   -111618.33    -110787.4   -219.53092    182049.81  0.058555817 
   68200    303.20792   -111622.48   -110777.42   -469.72983    181993.84  0.058573826 
   68300    305.18073   -111622.67   -110772.12    255.87164    181935.63  0.058592565 
   68400    303.39175   -111615.56   -110769.99   -86.944301    181894.03  0.058605966 
   68500     304.5063   -111618.56   -110769.89    7.2049442    181867.66  0.058614463 
   68600    307.89755   -111628.09   -110769.96   -186.02698    181846.39  0.058621321 
   68700    300.40978   -111608.42   -110771.16    272.69027    181816.34   0.05863101 
   68800    312.10581   -111643.83   -110773.98    443.42986    181779.19  0.058642991 
   68900    299.54612   -111615.75    -110780.9    94.986223    181722.67  0.058661231 
   69000    292.28993   -111605.86   -110791.23   -83.297507    181666.61  0.058679332 
   69100    293.75747   -111621.35   -110802.63    156.47606    181628.66  0.058691591 
   69200    293.69627   -111633.98   -110815.43   -62.843547    181604.25  0.058699483 
   69300    293.43221   -111644.65   -110826.83   -118.94574    181567.29   0.05871143 
   69400     298.5611   -111668.09   -110835.99   -395.27013     181523.7   0.05872553 
   69500    283.21517   -111632.54    -110843.2    368.62398    181487.08   0.05873738 
   69600    299.27096   -111679.65   -110845.56   -411.69637    181461.99  0.058745501 
   69700     293.0908   -111662.91   -110846.05   -46.553956    181436.61  0.058753719 
   69800    294.96831   -111665.65   -110843.55    267.22508    181413.88  0.058761081 
   69900    292.69208   -111655.64   -110839.89    298.93863    181374.27  0.058773913 
   70000    295.32236   -111659.86   -110836.78    658.32081    181325.29  0.058789789 
   70100    298.36076   -111665.12   -110833.58    40.769773    181269.71  0.058807815 
   70200    302.30392    -111672.4   -110829.86   -398.87562     181227.5  0.058821511 
   70300    293.60434    -111643.9    -110825.6    34.487093    181175.61  0.058838358 
   70400    282.57369   -111608.27   -110820.72    92.810319    181094.93  0.058864572 
   70500    297.01186   -111640.55   -110812.76   -329.31128    180983.88   0.05890069 
   70600    295.74038   -111627.66   -110803.42   -168.80695    180854.27  0.058942901 
   70700    298.92926   -111626.81   -110793.67    11.527102    180721.77  0.058986116 
   70800    294.07148   -111606.13   -110786.53   -9.5696217    180627.08  0.059017039 
   70900    308.09118   -111637.97    -110779.3    394.33205    180578.37  0.059032959 
   71000    301.87976   -111614.99   -110773.63   -317.03107    180558.45   0.05903947 
   71100     302.5766   -111613.29   -110769.99   -156.92982    180532.05  0.059048103 
   71200    308.37075   -111628.13   -110768.69   -294.66029    180476.69  0.059066218 
   71300    302.15261   -111610.29   -110768.17    273.22018    180398.62  0.059091778 
   71400    302.09777   -111609.79   -110767.83    47.362885    180302.01  0.059123441 
   71500    302.82174   -111613.66   -110769.68   -174.37257     180219.7  0.059150445 
   71600     303.6359   -111620.51   -110774.26    426.21173    180142.84  0.059175683 
   71700    303.60164   -111629.71   -110783.55    1.0216873     180089.4  0.059193243 
   71800    289.48482    -111607.1   -110800.29    339.42281    180037.51  0.059210302 
   71900    293.85039   -111642.37    -110823.4   -66.611556    179981.25  0.059228811 
   72000    292.39059   -111657.51    -110842.6   -105.52535    179911.26  0.059251853 
   72100      299.616   -111688.76   -110853.72   -43.539528    179840.43   0.05927519 
   72200    292.64901   -111674.47   -110858.84   -207.76444    179782.07   0.05929443 
   72300    289.50014   -111664.98   -110858.13   -89.570129    179720.73  0.059314668 
   72400    286.07452   -111652.53   -110855.22    574.15446     179644.2  0.059339937 
   72500    285.22124   -111642.77   -110847.85   -357.30881    179544.17  0.059372997 
   72600     287.0156   -111637.03    -110837.1  0.022940241    179421.81  0.059413486 
   72700    297.87736   -111654.79   -110824.59    98.355355       179319  0.059447551 
   72800    303.70957   -111660.09   -110813.64   -93.732598    179242.61  0.059472886 
   72900    295.18836   -111626.72   -110804.02    16.318582    179159.62  0.059500435 
   73000    299.46898   -111630.05   -110795.42   -302.69237    179071.65  0.059529664 
   73100    294.55913   -111609.84   -110788.89    234.70864    178990.12   0.05955678 
   73200    313.43012   -111656.62   -110783.08    11.244505    178939.53   0.05957362 
   73300    305.62393   -111629.56   -110777.77    45.111752    178895.03  0.059588437 
   73400    304.73366   -111625.36   -110776.05    357.01307    178834.37  0.059608651 
   73500    302.30296   -111618.48   -110775.95     61.74181    178750.86  0.059636497 
   73600    301.78537   -111618.83   -110777.73    240.25475    178665.11   0.05966512 
   73700    295.87101   -111605.63   -110781.02    374.98946    178599.73  0.059686961 
   73800    298.42068   -111617.55   -110785.84   -15.875885    178546.61  0.059704719 
   73900    306.71332   -111646.24   -110791.41    40.558561    178490.21  0.059723584 
   74000    295.51232   -111623.73   -110800.12    781.77774    178432.02  0.059743063 
   74100    302.22762   -111654.18   -110811.85   -435.78132    178399.83  0.059753844 
   74200    280.79339   -111609.73   -110827.14    250.63932    178352.72  0.059769628 
   74300     292.9386   -111658.31   -110841.87    45.698281    178318.31  0.059781158 
   74400    292.67915   -111670.07   -110854.36   -31.960066    178286.43  0.059791848 
   74500     289.7625   -111670.44   -110862.85    246.68859    178244.54    0.0598059 
   74600    279.65178   -111646.11    -110866.7   -185.61069    178229.07  0.059811094 
   74700    287.76228   -111666.72   -110864.71   -206.24423    178231.37   0.05981032 
   74800     299.0951   -111692.58   -110858.98     210.4244    178217.25  0.059815059 
   74900    298.70744   -111684.67   -110852.15     107.3265    178206.94   0.05981852 
   75000    294.59879   -111665.54   -110844.48    -372.0072       178172  0.059830252 
   75100    292.80805    -111654.3   -110838.23   -135.31949     178130.8  0.059844088 
   75200    291.83022   -111645.29   -110831.94   -209.18745    178097.49  0.059855283 
   75300    290.90892   -111636.47   -110825.69    248.00976    178050.72  0.059871005 
   75400    298.40305   -111651.72   -110820.05     144.8248    178015.16  0.059882964 
   75500    292.96071   -111630.58   -110814.08   -426.89738    177984.16  0.059893393 
   75600    293.90554   -111626.54   -110807.41     -300.364     177955.2  0.059903139 
   75700    301.15373    -111638.8   -110799.46   -164.93382     177896.2  0.059923009 
   75800    300.11382   -111628.44      -110792    314.35641    177808.58  0.059952535 
   75900    296.96584   -111611.65   -110783.99    74.887296    177722.69  0.059981511 
   76000     307.5898    -111634.1   -110776.82     60.60572    177633.38  0.060011667 
   76100    310.23001   -111636.11   -110771.48    153.22424    177529.54  0.060046769 
   76200    314.37855   -111644.16   -110767.97    97.554251    177412.47  0.060086392 
   76300    308.41062   -111626.46    -110766.9    -384.3906    177289.49  0.060128072 
   76400    304.92311   -111618.09   -110768.25   -29.331927    177141.57  0.060178281 
   76500    304.35785    -111618.5   -110770.24     65.17765    176990.97  0.060229486 
   76600    305.14178   -111625.49   -110775.04    31.549932    176843.89  0.060279579 
   76700    303.70594   -111631.08   -110784.63    -342.9996    176707.88  0.060325978 
   76800    296.97224   -111625.09   -110797.41   -507.83005    176584.43  0.060368151 
   76900    294.16038   -111634.02   -110814.18    414.79303    176453.62  0.060412902 
   77000    292.86199   -111646.06   -110829.84   -32.811011     176339.2  0.060452102 
   77100     290.6919   -111649.58    -110839.4    414.44886    176238.82  0.060486533 
   77200    296.40931   -111670.64   -110844.53   -117.30674    176155.19  0.060515251 
   77300    289.82153   -111654.89   -110847.14    5.6180159    176093.57  0.060536426 
   77400    289.59567   -111653.55   -110846.43     333.1971    176043.82  0.060553534 
   77500    288.05289   -111645.86   -110843.04   -403.06837    175977.34  0.060576408 
   77600    294.12899   -111656.57   -110836.82   -303.54941    175864.48  0.060615284 
   77700    292.20216   -111642.81   -110828.42    549.13609    175767.66  0.060648674 
   77800     290.4716   -111629.38   -110819.82   -290.49876     175723.9  0.060663775 
   77900    287.89866   -111612.56   -110810.17    193.27172    175707.77  0.060669345 
   78000    293.44102   -111620.57   -110802.73    452.19532    175700.75  0.060671768 
   78100    287.53027   -111597.57   -110796.21    136.16198    175695.79  0.060673483 
   78200    311.97443   -111660.11   -110790.62   -69.796487    175693.65  0.060674221 
   78300     308.0149    -111645.7   -110787.24   -404.19928       175641  0.060692407 
   78400       303.42   -111631.37   -110785.72    223.11871    175530.42  0.060730644 
   78500    302.65374   -111630.61    -110787.1   -53.164005    175404.97  0.060774079 
   78600    297.92354   -111617.71   -110787.38    314.00043    175276.23  0.060818716 
   78700    303.94637   -111635.92    -110788.8    103.96032     175178.5  0.060852647 
   78800    302.55636    -111632.6   -110789.36   -146.66167    175101.75  0.060879319 
   78900    304.52558   -111639.22   -110790.49   -30.954122    175028.64  0.060904749 
   79000    309.53728   -111654.24   -110791.54   -750.50811    174928.48  0.060939622 
   79100    307.07131   -111649.82      -110794   -268.25276    174780.47  0.060991229 
   79200    294.40766    -111618.3   -110797.77   -227.01502    174597.52  0.061055136 
   79300    300.74312   -111642.53   -110804.34    9.6097832    174410.92  0.061120458 
   79400    308.78801   -111677.11    -110816.5   -159.11934     174242.8   0.06117943 
   79500    288.48628   -111635.27   -110831.24   -374.65363    174075.53  0.061238217 
   79600    293.14059      -111663      -110846    -38.12387    173912.15  0.061295747 
   79700    279.88027   -111636.11   -110856.07   -226.40206    173747.87  0.061353703 
   79800    286.21213   -111658.83   -110861.14    108.66394    173581.43  0.061412532 
   79900    287.77702    -111663.7   -110861.65    45.887501    173433.73  0.061464834 
   80000    284.87242   -111651.05    -110857.1   -146.55773    173306.18  0.061510071 
   80100    291.62544   -111662.51   -110849.73    246.98469    173211.38  0.061543734 
   80200    288.35415   -111641.64   -110837.98   -33.325538    173138.11   0.06156978 
   80300    298.50107   -111656.98   -110825.04   -91.430197    173107.55   0.06158065 
   80400    300.19897   -111650.23   -110813.56   -428.11365    173095.15  0.061585061 
   80500    316.29421   -111686.66   -110805.13    66.231592    173072.95  0.061592962 
   80600    301.89916   -111642.11    -110800.7    253.76653    173034.08  0.061606796 
   80700    286.51621    -111597.3   -110798.76    356.56117    172975.98   0.06162749 
   80800    296.77377   -111623.66   -110796.53    486.93403    172909.24  0.061651276 
   80900    300.75451   -111633.31   -110795.09   -38.600022    172861.95  0.061668142 
   81000    290.77239   -111603.98   -110793.58   -57.219893    172807.13  0.061687705 
   81100     305.5221   -111642.89   -110791.38    214.40259    172744.22  0.061710171 
   81200    302.11833   -111631.56   -110789.54   -266.45482     172660.9   0.06173995 
   81300     301.5131   -111628.57   -110788.24   -48.614327    172578.75  0.061769339 
   81400    299.85212   -111623.65   -110787.95    159.54223    172495.33  0.061799212 
   81500    298.69392   -111622.25   -110789.77    502.74089     172408.4  0.061830373 
   81600    304.61797   -111637.92   -110788.93   -341.95904    172340.57  0.061854705 
   81700    298.58122   -111623.14   -110790.98   -216.12589    172247.08  0.061888279 
   81800     293.7325   -111607.97   -110789.32    51.828364    172164.62  0.061917922 
   81900    299.18925   -111622.51   -110788.65    310.90444    172069.57  0.061952124 
   82000    308.30684   -111646.28   -110787.01    239.57838     171964.4  0.061990012 
   82100    314.68772   -111663.52   -110786.47   -111.15689    171839.47  0.062035082 
   82200    297.03552   -111615.09   -110787.23   -178.45063    171713.07  0.062080745 
   82300    293.13274   -111607.02   -110790.05    221.54713    171575.08  0.062130674 
   82400    301.84951   -111636.28   -110795.01   -52.239554    171424.98  0.062185076 
   82500    310.49056   -111667.22   -110801.87    231.28781    171244.59  0.062250581 
   82600    311.92061   -111678.15   -110808.81    176.20794    171045.65  0.062322984 
   82700    303.93293   -111664.58    -110817.5    344.18219    170808.09  0.062409663 
   82800    306.05837   -111678.73   -110825.73   -44.131737    170547.88  0.062504885 
   82900    295.26645   -111656.51   -110833.58    16.842997    170274.19   0.06260535 
   83000    289.53996   -111646.03   -110839.07   -169.61724    169994.45  0.062708374 
   83100    291.95925   -111656.02   -110842.31    335.34672    169713.24  0.062812279 
   83200    289.73519    -111650.8   -110843.29   -398.78936    169449.43   0.06291007 
   83300    288.20423   -111645.51   -110842.27    428.22609    169187.92  0.063007309 
   83400    290.97341   -111648.02   -110837.07   -88.231052    168917.93  0.063108014 
   83500    293.73373   -111647.26   -110828.61    -178.1244    168657.65  0.063205407 
   83600    302.06315   -111658.05   -110816.19    618.06645    168409.12  0.063298681 
   83700    293.62279   -111619.11   -110800.77   -142.28433    168185.52  0.063382836 
   83800    296.90302   -111611.41   -110783.92   -498.70842    167951.46   0.06347117 
   83900    302.44092   -111613.31   -110770.39    214.19482    167694.16  0.063568556 
   84000    300.80015   -111598.66   -110760.31    215.46289    167437.46  0.063666013 
   84100    298.45526   -111587.64   -110755.83   -34.708866    167213.25  0.063751379 
   84200    303.18767   -111600.17   -110755.17    464.60331    167012.78  0.063827902 
   84300    303.77749   -111603.96   -110757.31   -194.38968    166830.81  0.063897521 
   84400     314.0305   -111635.94   -110760.72    -779.7558    166645.77  0.063968473 
   84500    302.10378    -111609.5   -110767.52   -67.709138    166446.85  0.064044922 
   84600    299.48575   -111610.39   -110775.71   -141.03939    166232.28  0.064127591 
   84700    285.02832   -111578.25   -110783.86   -253.15919     166024.4  0.064207885 
   84800    304.30035   -111639.51   -110791.41   -3.2876414     165863.6   0.06427013 
   84900    306.34868   -111653.23   -110799.42   -330.66926     165749.2  0.064314492 
   85000    296.43225   -111632.75   -110806.57   -84.298998    165618.34  0.064365306 
   85100    300.99336   -111649.39   -110810.51   -162.08636     165461.9  0.064426164 
   85200     293.0776   -111631.15   -110814.33     195.1668    165289.52  0.064493355 
   85300    295.06346   -111640.07   -110817.71     71.93167    165114.17  0.064561846 
   85400    291.38867   -111631.26   -110819.14   -417.55085    164917.99  0.064638643 
   85500    300.86932   -111657.22   -110818.68    620.42754    164690.13  0.064728077 
   85600    298.94085   -111652.48   -110819.32    132.14189    164463.94  0.064817097 
   85700    300.68358   -111657.87   -110819.85    107.31192    164212.86  0.064916203 
   85800     291.7207   -111630.77   -110817.73    193.10111    163949.14  0.065020625 
   85900    301.11018   -111654.76   -110815.55    10.935156    163673.32  0.065130195 
   86000    298.26162   -111643.32   -110812.05   -215.86887    163391.67  0.065242466 
   86100      299.838    -111643.7   -110808.03    44.847449    163094.02  0.065361535 
   86200    295.21784   -111625.81   -110803.02   -304.69626    162788.07  0.065484377 
   86300    310.10415   -111663.93   -110799.65    161.47771    162477.37  0.065609602 
   86400    305.56516   -111648.95   -110797.32   -475.19087     162157.3  0.065739103 
   86500    308.69724   -111656.25    -110795.9    733.69117    161805.72  0.065881944 
   86600    289.88964   -111604.54    -110796.6   -309.06891    161450.89  0.066026738 
   86700    307.04834   -111652.19   -110796.43   -200.60685    161088.78  0.066175157 
   86800     299.8175   -111630.58   -110794.97   -283.63311    160718.45   0.06632764 
   86900    291.86595   -111605.63   -110792.19   -388.54561    160345.44  0.066481937 
   87000    287.77526   -111590.67   -110788.62    173.16072     159975.3  0.066635756 
   87100    301.13433   -111624.95   -110785.68   -128.20657     159629.9  0.066779943 
   87200    302.67085   -111625.14   -110781.58   -221.11408    159292.69  0.066921308 
   87300    300.98235   -111615.56   -110776.71   -370.88229    158954.56  0.067063665 
   87400     305.6264   -111622.04   -110770.25    -16.22395    158612.06  0.067208479 
   87500    307.40286   -111616.27   -110759.52    -133.8394    158289.44   0.06734546 
   87600    296.64895      -111573   -110746.23   -424.42139    157993.06  0.067471794 
   87700    310.93629   -111598.53   -110731.94    367.69959    157724.48   0.06758669 
   87800    319.70982   -111612.87   -110721.82   -255.31822     157476.3  0.067693203 
   87900    329.70148   -111635.57   -110716.68   -605.96918    157239.98  0.067794941 
   88000    309.45494   -111582.99   -110720.52    -260.4915    157000.21   0.06789848 
   88100    318.50918   -111617.25   -110729.54    119.78772    156757.22  0.068003727 
   88200    312.69109   -111616.31   -110744.82   -387.85055     156508.2  0.068111929 
   88300    308.80823   -111622.86   -110762.19    678.11312    156233.22   0.06823181 
   88400    303.24702   -111621.01   -110775.84    118.35189     155955.5  0.068353314 
   88500    301.26841   -111625.26   -110785.61   -138.61606    155674.84  0.068476546 
   88600    296.76556   -111618.19   -110791.09    74.675276    155399.14  0.068598034 
   88700    305.10993   -111646.11   -110795.75   -142.66174    155128.99  0.068717492 
[...]
  978700    292.70979   -111796.15   -110980.35    309.05421    9642.6985    1.1055075 
  978800    288.24257   -111763.85    -110960.5    64.260694    9643.7975    1.1053815 
  978900    296.21681   -111765.38   -110939.81    1179.5918    9645.7711    1.1051553 
  979000    296.11173   -111750.21   -110924.93   -3487.1277    9647.2529    1.1049856 
  979100    317.38568   -111802.61   -110918.04    5039.0675    9647.6949     1.104935 
  979200     304.0011   -111763.44   -110916.17    2019.2183    9648.3957    1.1048547 
  979300    308.99898    -111779.5    -110918.3     7393.388    9649.7812    1.1046961 
  979400    319.77092   -111812.29   -110921.07    10175.135    9652.5101    1.1043838 
  979500    299.65596   -111760.18   -110925.02     12863.99    9656.4461    1.1039336 
  979600    304.41208   -111778.48   -110930.07    10392.752    9661.1483    1.1033963 
  979700    294.62768   -111758.42   -110937.27    2179.7993    9666.1273     1.102828 
  979800    299.04032    -111777.7   -110944.26    639.66011     9671.195    1.1022501 
  979900    293.09916   -111769.22   -110952.34   -3742.1363    9677.4995     1.101532 
  980000    293.47862   -111776.96   -110959.02    5031.8628    9684.1615    1.1007742 
  980100     297.0405   -111792.58   -110964.71   -9062.4685    9690.4319    1.1000619 
  980200    300.04894   -111806.88   -110970.62    5501.3076    9694.1696    1.0996378 
  980300    300.51081   -111811.76   -110974.21   -4180.4248    9696.7249     1.099348 
  980400     303.8407      -111824   -110977.18    10461.086    9698.7971    1.0991131 
  980500    302.44155   -111821.59   -110978.66   -32.699672    9701.3066    1.0988288 
  980600    296.07417   -111805.88   -110980.71    203.33043    9704.8577    1.0984268 
  980700    285.70385   -111777.13   -110980.86   -832.63582    9709.4037    1.0979125 
  980800    295.96097   -111802.88   -110978.02    604.59429    9714.9832    1.0972819 
  980900    291.38197   -111782.37   -110970.28   -8789.4405    9722.1565    1.0964723 
  981000     292.4758   -111773.25   -110958.11   -6082.1708    9729.8813    1.0956018 
  981100    291.39533   -111754.83   -110942.69   -2618.8325    9737.4943    1.0947452 
  981200    288.99067   -111735.03    -110929.6    2120.9479    9743.9489      1.09402 
  981300    297.42239   -111747.35   -110918.42   -3817.2593    9750.5064    1.0932843 
  981400    304.00496   -111756.05   -110908.78    3395.8772    9758.6984    1.0923665 
  981500    316.58702    -111783.7   -110901.36     15463.69    9768.5004    1.0912704 
  981600    304.10396   -111744.42   -110896.87   -1255.1129    9779.1739    1.0900793 
  981700     309.1142   -111756.49   -110894.97    680.89425    9788.2094    1.0890731 
  981800    307.68445    -111754.5   -110896.97   -8979.6839     9796.776    1.0881208 
  981900    296.73419   -111730.85   -110903.84    6939.7704    9803.2562    1.0874015 
  982000    309.94528   -111777.42   -110913.59   -11669.683    9809.3714    1.0867236 
  982100    305.08166   -111775.34   -110925.06    1073.1022    9814.9318    1.0861079 
  982200    302.61491   -111778.88   -110935.47   -820.32126    9820.4088    1.0855022 
  982300    294.72159   -111765.57   -110944.17   -3124.3018    9823.8872    1.0851179 
  982400    285.90151   -111750.55   -110953.73    3013.9713    9826.1149    1.0848718 
  982500     304.7335   -111811.15   -110961.84    6410.9176    9828.8161    1.0845737 
  982600    297.61739   -111798.61   -110969.13    4989.7808    9831.4127    1.0842872 
  982700    297.90466    -111803.1   -110972.82   -4600.6551    9832.5064    1.0841666 
  982800     301.1441   -111813.69   -110974.38   -773.52824    9832.0652    1.0842153 
  982900    300.38097   -111810.87   -110973.69   -7981.5146    9831.3685    1.0842921 
  983000     303.3703   -111818.28   -110972.77    1460.9821    9829.7349    1.0844723 
  983100    298.45161   -111803.88   -110972.08   -2047.8366    9827.1413    1.0847585 
  983200    287.18373   -111771.04   -110970.64    10255.583    9823.8858     1.085118 
  983300    279.06944   -111744.41   -110966.63   -5518.5503    9822.1976    1.0853045 
  983400     299.4651   -111796.12    -110961.5    5245.3604    9821.4417     1.085388 
  983500    292.38831   -111769.43   -110954.52   -7475.3071     9821.828    1.0853453 
  983600    300.06001    -111785.2   -110948.92    -6804.348    9822.2612    1.0852975 
  983700    299.32054   -111777.87   -110943.65    184.99577    9822.0594    1.0853198 
  983800    304.86963   -111787.94   -110938.25   -3275.2615    9821.0059    1.0854362 
  983900    308.31055   -111793.16   -110933.88   -125.99964    9819.9311     1.085555 
  984000    306.77697   -111786.61   -110931.61   -7881.8824    9820.0365    1.0855433 
  984100     299.9441   -111766.16    -110930.2    7398.2005    9822.0344    1.0853225 
  984200     300.0378    -111766.7   -110930.47   -3480.6213    9825.6927    1.0849185 
  984300    307.43348   -111788.35   -110931.52   -1308.7681    9828.8439    1.0845706 
  984400    307.07477    -111791.7   -110935.87   -5425.9895    9830.6065    1.0843762 
  984500    306.92999   -111801.86   -110946.43    11223.281    9830.6834    1.0843677 
  984600    310.84849   -111829.43   -110963.08    887.86606      9831.77    1.0842478 
  984700    299.83759   -111816.79   -110981.12     7230.531    9832.9292      1.08412 
  984800     280.0289   -111775.03   -110994.58   -5227.5801    9833.9264    1.0840101 
  984900    288.14314   -111806.19   -111003.12     5074.014    9833.4093    1.0840671 
  985000    295.64357   -111830.81   -111006.83    4821.5108     9833.271    1.0840823 
  985100    289.62614   -111813.73   -111006.53   -965.68792      9832.55    1.0841618 
  985200    274.03561   -111767.57   -111003.82    11505.012    9829.7396    1.0844718 
  985300    291.57534   -111807.35   -110994.71   -8798.7439    9826.3687    1.0848438 
  985400    292.34579   -111797.65   -110982.86    8754.1816    9822.3615    1.0852864 
  985500    291.97433   -111783.32   -110969.57    8269.0813    9819.9056    1.0855578 
  985600    292.26511   -111773.19   -110958.63   -549.85273    9818.2505    1.0857408 
  985700    307.05695   -111804.39   -110948.61     -7045.02    9816.1051    1.0859781 
  985800    301.12563   -111780.31   -110941.06   -3249.5761    9812.9933    1.0863225 
  985900    303.70432   -111780.51   -110934.07     1207.035    9810.7897    1.0865665 
  986000    304.32581   -111777.28    -110929.1    -3684.569    9809.8696    1.0866684 
  986100    305.65988   -111778.12   -110926.23   -1107.9389    9809.7876    1.0866775 
  986200    302.65464    -111769.1   -110925.58   -3450.4186    9810.1557    1.0866367 
  986300    306.05716   -111778.71   -110925.72    1909.1041    9809.1524    1.0867479 
  986400    311.55462   -111796.04   -110927.72    3318.2133    9807.6904    1.0869099 
  986500    306.86954   -111787.23   -110931.97    4639.1114    9806.4712     1.087045 
  986600    312.29418   -111808.58    -110938.2    266.01617     9804.712      1.08724 
  986700    306.85499   -111802.22      -110947    5450.7029     9802.951    1.0874353 
  986800     291.7228   -111770.47   -110957.43   -4826.9532    9801.8541     1.087557 
  986900    289.16282   -111775.86   -110969.94   -2194.4175    9798.6254    1.0879154 
  987000    286.35901   -111782.69   -110984.59   -5925.0839    9793.0577    1.0885339 
  987100    287.03131   -111795.88    -110995.9    -5020.906    9785.8541    1.0893352 
  987200    294.82134   -111826.75   -111005.06    2052.9623    9777.2084    1.0902985 
  987300    292.25222   -111827.13   -111012.61    3642.3193    9767.2729    1.0914075 
  987400    284.93288   -111812.72    -111018.6   -2817.9981    9756.4986    1.0926128 
  987500    283.73705   -111812.85   -111022.06    6787.4072    9745.0216    1.0938996 
  987600    281.33259   -111805.47   -111021.38    6755.0726     9733.531     1.095191 
  987700    296.43003   -111839.58   -111013.41     2179.838    9722.0811    1.0964808 
  987800    289.99326   -111805.07   -110996.84   -5.1115392    9710.3752    1.0978026 
  987900    294.87358   -111798.78   -110976.95    1258.4048    9699.3296    1.0990528 
  988000    304.42166   -111808.85   -110960.41   -2927.7713    9689.4227    1.1001765 
  988100     292.1093   -111760.96   -110946.84     4135.715    9680.7313    1.1011643 
  988200     302.0948   -111778.08   -110936.12   -6374.4054    9670.7805    1.1022973 
  988300    306.84738   -111782.69   -110927.49   -3183.8333    9658.0852    1.1037463 
  988400    314.62016   -111798.89   -110922.03   -320.01272    9643.7635    1.1053854 
  988500    303.29899   -111764.69   -110919.38    12209.465    9629.4322    1.1070305 
  988600    305.22162   -111768.49   -110917.82   -8701.3907    9616.6322     1.108504 
  988700    306.74504   -111773.87   -110918.95    4804.7494    9604.8558    1.1098631 
  988800     293.0642   -111738.65   -110921.87   -3009.5749    9595.6897    1.1109233 
  988900    305.08378   -111775.93   -110925.65    2405.0817    9587.5285     1.111869 
  989000    297.34574   -111759.56   -110930.84    1268.9892    9580.4067    1.1126955 
  989100      304.621   -111785.63   -110936.63   -9259.2308    9572.7798     1.113582 
  989200    308.76977   -111804.04   -110943.48   -2652.3044    9564.2983    1.1145695 
  989300     302.6641   -111795.17   -110951.63    3268.0585    9555.5395    1.1155912 
  989400    303.90799   -111808.27   -110961.26   -4404.2254    9548.0316    1.1164684 
  989500    294.12024   -111790.88   -110971.15   -11809.337    9541.0315    1.1172875 
  989600    304.15156   -111827.92   -110980.23    8707.9146    9534.2222    1.1180855 
  989700    289.09672   -111795.93    -110990.2   -378.26954     9528.722    1.1187309 
  989800    288.06244   -111800.76   -110997.91    11461.672    9523.4748    1.1193473 
  989900    284.87487   -111797.65   -111003.69   -3180.2124    9518.2751    1.1199587 
  990000     291.7954   -111821.63   -111008.38    3929.5325    9512.2755    1.1206651 
  990100    285.03041    -111805.3    -111010.9    -4911.008    9506.7364    1.1213181 
  990200    286.46979   -111808.55   -111010.14   -5359.2114    9502.9242    1.1217679 
  990300    278.72293   -111780.69   -111003.88   -7735.2958    9500.3553    1.1220712 
  990400    297.28118   -111817.14    -110988.6    2648.9052    9499.0468    1.1222258 
  990500    303.55581   -111810.82   -110964.79    3553.8922    9498.3767     1.122305 
  990600    308.43857   -111802.61   -110942.98    1520.0542    9497.1021    1.1224556 
  990700    301.65446   -111770.74   -110930.01    8461.6117    9494.3466    1.1227814 
  990800    309.81597   -111786.06   -110922.59    6208.4174    9491.8359    1.1230783 
  990900    296.46521   -111744.25   -110917.99    4337.6762    9490.6591    1.1232176 
  991000    309.93758   -111778.63   -110914.82    1539.1805    9491.6477    1.1231006 
  991100    306.94587   -111768.98    -110913.5    1098.4836    9493.9692     1.122826 
  991200    309.67247   -111779.29   -110916.21   -6707.0821    9496.6145    1.1225132 
  991300    299.01194   -111756.49   -110923.13    6333.5915    9498.5235    1.1222876 
  991400     299.0273   -111764.74   -110931.34   -4209.9742    9501.0217    1.1219925 
  991500    295.23728   -111763.26   -110940.42    8713.6686    9504.0714    1.1216325 
  991600    293.19727   -111767.89   -110950.73    2814.9871    9509.2999    1.1210158 
  991700    300.58535   -111796.92   -110959.17   -1228.7405    9515.0441     1.120339 
  991800    297.96416   -111799.58   -110969.13   -866.63969     9520.528    1.1196937 
  991900    289.66534   -111786.03   -110978.72    5894.1943     9524.407    1.1192377 
  992000     301.9239   -111827.42   -110985.94   -515.76747    9527.8796    1.1188298 
  992100    290.44373   -111800.16   -110990.67   -13544.272    9531.5393    1.1184002 
  992200    288.54375   -111797.96   -110993.77    519.00486    9535.7378    1.1179078 
  992300    292.01896   -111807.77    -110993.9   -3450.0021    9541.1004    1.1172794 
  992400    303.31431   -111836.88   -110991.52   -460.96215    9547.4418    1.1165373 
  992500    294.66958   -111808.23   -110986.97    1980.5269    9554.1383    1.1157548 
  992600    299.06243   -111812.38   -110978.87    2635.5594    9560.0143     1.115069 
  992700    298.93574   -111801.01   -110967.86   -9575.7608    9565.7355    1.1144021 
  992800    307.97895   -111812.34   -110953.99    3457.3182    9571.3817    1.1137447 
  992900    288.00527   -111742.21   -110939.52    340.95849    9577.1741    1.1130711 
  993000    298.78376   -111760.32    -110927.6    1056.1673    9584.7156    1.1121953 
  993100    307.43841   -111775.01   -110918.16   -7722.8185    9592.7194    1.1112673 
  993200    304.49394   -111763.19   -110914.55    4631.0644    9599.9699     1.110428 
  993300    298.14024   -111744.35   -110913.42    1219.7243    9607.5655    1.1095501 
  993400    304.25663   -111761.82   -110913.84    3212.6591    9616.2116    1.1085525 
  993500    301.86292   -111756.86   -110915.55    4159.7193    9626.0814    1.1074159 
  993600     312.2147   -111786.63   -110916.47    257.50713    9636.7883    1.1061855 
  993700    307.89073   -111777.78   -110919.67   -478.11956      9649.27    1.1047546 
  993800     310.9963   -111791.41   -110924.64   -4236.0387    9661.8988    1.1033106 
  993900    305.09028   -111779.44   -110929.13    976.89657    9673.7051    1.1019641 
  994000     289.0421   -111741.52   -110935.94   -5662.5615    9685.5723    1.1006139 
  994100    298.90149   -111775.91   -110942.85    6015.8723    9698.0663     1.099196 
  994200     302.0083   -111792.95   -110951.24    168.83559    9711.4213    1.0976844 
  994300    299.26786   -111794.83   -110960.76   -6448.7311    9724.0774    1.0962557 
  994400    291.25082   -111782.29   -110970.55   -5597.6824     9734.199    1.0951158 
  994500    296.91637   -111805.71   -110978.19   -8534.9858    9740.4379    1.0944144 
  994600      291.579    -111795.6   -110982.96   -854.63963    9744.3009    1.0939805 
  994700    297.33427   -111816.16   -110987.47    8914.0373    9748.9405    1.0934599 
  994800    293.82146    -111807.5    -110988.6   -770.06078    9754.3949    1.0928485 
  994900    298.64348      -111818   -110985.66    951.07453    9760.3101    1.0921861 
  995000    287.54399   -111782.23   -110980.83    2479.5353    9766.1453    1.0915336 
  995100     295.9558    -111796.2   -110971.36   -5116.2866    9770.7743    1.0910164 
  995200    297.20291   -111784.97   -110956.65      1409.19    9773.8212    1.0906763 
  995300    300.74278   -111773.96   -110935.77    15525.109    9776.2657    1.0904036 
  995400    302.94388    -111762.2   -110917.88    8698.5758    9780.1425    1.0899714 
  995500    321.13886   -111800.64    -110905.6   -123.98158     9784.442    1.0894924 
  995600    312.77729    -111771.1   -110899.37   -10263.059    9790.4858    1.0888199 
  995700    308.93211   -111760.64   -110899.63    6328.4536    9797.1448    1.0880798 
  995800    297.76673   -111733.14   -110903.24    5482.5273    9804.3079    1.0872848 
  995900    299.98988   -111743.05   -110906.96    2894.7759    9810.4027    1.0866094 
  996000    298.52688   -111744.18   -110912.17   -12186.359    9816.1084    1.0859778 
  996100    315.41659   -111796.66   -110917.57   -7444.8777    9820.4886    1.0854934 
  996200    299.89361    -111760.7   -110924.88    5120.0485    9823.9283    1.0851133 
  996300    303.01474   -111778.59   -110934.07    -4516.446    9829.1784    1.0845337 
  996400    308.33571   -111802.77   -110943.42    786.83136    9835.6731    1.0838176 
  996500    303.88411   -111797.92   -110950.98    4561.2604    9842.3316    1.0830844 
  996600    294.36716   -111776.75   -110956.33   -12672.883    9848.5961    1.0823954 
  996700    301.15113   -111801.61   -110962.29   -5887.9089    9854.0824    1.0817928 
  996800    301.48113   -111809.37   -110969.12    6052.5659    9858.8856    1.0812658 
  996900    298.08148    -111805.9   -110975.13    4360.0371    9863.2783    1.0807842 
  997000    294.27783   -111801.02   -110980.85    15089.816    9867.5864    1.0803123 
  997100    296.55624   -111809.71   -110983.19   -679.27077    9871.8086    1.0798503 
  997200    288.43924   -111787.66   -110983.77    6405.9792    9875.7588    1.0794184 
  997300    289.21337   -111787.63   -110981.57    490.41454     9879.681    1.0789898 
  997400    288.35115   -111777.96   -110974.31    5078.4877    9883.0911    1.0786175 
  997500     298.3046   -111789.52   -110958.13   -3384.9846    9886.5753    1.0782374 
  997600    311.60226   -111800.36    -110931.9    3796.3902    9890.4713    1.0778127 
  997700    312.90648   -111780.43   -110908.34   -4355.7656     9894.738    1.0773479 
  997800    305.99201   -111748.97   -110896.15    3203.9276    9898.0091    1.0769919 
  997900    302.68633   -111736.11    -110892.5    -1592.977    9900.7222    1.0766967 
  998000    310.91506   -111758.78   -110892.24    7225.6167    9903.4102    1.0764045 
  998100    301.75824   -111736.48   -110895.47   -2348.5923    9905.9572    1.0761277 
  998200    309.68531   -111763.35   -110900.24    3852.2125     9907.209    1.0759918 
  998300    306.79511   -111761.64   -110906.58    6018.9458    9907.2927    1.0759827 
  998400    303.68863   -111762.45   -110916.05    1588.3588    9907.4257    1.0759682 
  998500    304.66529   -111775.26   -110926.14    5493.6582    9907.4726    1.0759631 
  998600    301.67003   -111776.62   -110935.85   -824.12776    9904.9735    1.0762346 
  998700    304.89627    -111795.4   -110945.64   -6290.9156    9898.4648    1.0769423 
  998800    294.21482    -111773.8   -110953.81   -449.07058     9888.522    1.0780251 
  998900    298.27987   -111791.31   -110959.99   -8104.2675    9878.3318    1.0791372 
  999000    303.49227    -111812.1   -110966.25    5383.0836    9867.9026    1.0802777 
  999100    288.89391    -111776.1   -110970.94   -6764.6669    9858.0029    1.0813626 
  999200    293.87494   -111792.43   -110973.38   -971.13961    9846.6995    1.0826039 
  999300    285.76145   -111769.97   -110973.54   -1571.0809    9835.2154     1.083868 
  999400    295.25945   -111793.86   -110970.96    474.85274    9823.9616    1.0851096 
  999500    289.80551   -111772.23   -110964.53   -1747.1784    9813.1633    1.0863037 
  999600    299.59795   -111788.32   -110953.32    4511.3954     9801.714    1.0875726 
  999700    298.31463   -111767.62    -110936.2   -3307.6881     9789.842    1.0888915 
  999800    295.18222   -111737.22   -110914.53   -7984.4122     9776.571    1.0903696 
  999900    306.94976   -111751.16   -110895.67     4200.638    9762.9612    1.0918896 
 1000000    314.16126   -111761.18   -110885.59   -5706.4209    9749.2778    1.0934221 
Loop time of 106229 on 1 procs for 1000000 steps with 936 atoms

Performance: 0.203 ns/day, 118.032 hours/ns, 9.414 timesteps/s
99.9% CPU use with 1 MPI tasks x no OpenMP threads

MPI task timing breakdown:
Section |  min time  |  avg time  |  max time  |%varavg| %total
---------------------------------------------------------------
Pair    | 87711      | 87711      | 87711      |   0.0 | 82.57
Neigh   | 358.22     | 358.22     | 358.22     |   0.0 |  0.34
Comm    | 23.184     | 23.184     | 23.184     |   0.0 |  0.02
Output  | 1.5913     | 1.5913     | 1.5913     |   0.0 |  0.00
Modify  | 18134      | 18134      | 18134      |   0.0 | 17.07
Other   |            | 1.129      |            |       |  0.00

Nlocal:    936 ave 936 max 936 min
Histogram: 1 0 0 0 0 0 0 0 0 0
Nghost:    8544 ave 8544 max 8544 min
Histogram: 1 0 0 0 0 0 0 0 0 0
Neighs:    574040 ave 574040 max 574040 min
Histogram: 1 0 0 0 0 0 0 0 0 0

Total # of neighbors = 574040
Ave neighs/atom = 613.291
Neighbor list builds = 10000
Dangerous builds not checked

Please see the log.cite file for references relevant to this simulation

Total wall time: 29:30:29
