LAMMPS (09 Jan 2020)
package omp 0
WARNING: OpenMP support not enabled during compilation; using 1 thread only. (../fix_omp.cpp:125)
units			real
atom_style		charge
read_data d2000000_lmps.dat
  orthogonal box = (-15 -15 -15) to (50 50 50)
  1 by 1 by 1 MPI processor grid
  reading atoms ...
  936 atoms
  read_data CPU = 0.000514984 secs
reset_timestep		0

pair_style              reax/c lmp_control lgvdw yes
pair_coeff              * * ffield C H O N

neighbor		2.5 bin
neigh_modify		delay 0 every 5 check no

fix			qeq all qeq/reax 1 0.0 10.0 1e-6 reax/c
fix			bonds all reax/c/bonds 500 bonds.reaxc
fix			npt all npt temp 300 300 100 iso 1.0 1.0 2000
fix 1 all reax/c/species 10 10 100 species.out cutoff 1 4 0.25
WARNING: Resetting reneighboring criteria for fix reax/c/species (../fix_reaxc_species.cpp:97)


thermo			100
thermo_style            custom step temp pe etotal press vol density
thermo_modify           flush yes

timestep		0.25

dump			1 all custom 1000 dump/dump.reax.npt.* id type xu yu zu
restart			500 restart.npt300 restart.npt300
run 1000000
Last active /omp style is pair_style reax/c/omp
Neighbor list info ...
  update every 100 steps, delay 0 steps, check no
  max neighbors/atom: 2000, page size: 100000
  master list distance cutoff = 12.5
  ghost atom cutoff = 12.5
  binsize = 6.25, bins = 11 11 11
  2 neighbor lists, perpetual/occasional/extra = 2 0 0
  (1) pair reax/c/omp, perpetual
      attributes: half, newton off, ghost, omp
      pair build: half/bin/newtoff/ghost/omp
      stencil: half/ghost/bin/3d/newtoff
      bin: standard
  (2) fix qeq/reax/omp, perpetual, copy from (1)
      attributes: half, newton off, ghost
      pair build: copy
      stencil: none
      bin: none
Per MPI rank memory allocation (min/avg/max) = 81.78 | 81.78 | 81.78 Mbytes
Step Temp PotEng TotEng Press Volume Density 
       0            0   -111734.16   -111734.16   -22.070102       274625  0.038816842 
     100    133.72654   -112093.73   -111721.02    73.620608    274599.78  0.038820407 
     200    160.70017   -112148.21   -111700.33   -197.95617    274560.34  0.038825984 
     300    162.63101   -112130.91   -111677.64   -48.606198    274494.56  0.038835288 
     400    157.84823   -112089.36   -111649.42    352.97801    274388.29  0.038850329 
     500    167.12456   -112084.39    -111618.6   -139.56024    274244.45  0.038870706 
     600    179.30026   -112085.33   -111585.61    138.09837    274065.79  0.038896045 
     700     174.5122   -112036.76   -111550.38    80.411938    273879.74  0.038922468 
     800     185.6268   -112031.62   -111514.27    197.76333    273718.03  0.038945462 
     900    196.79259   -112024.16   -111475.69    5.3015465    273564.85  0.038967269 
    1000    203.30594   -112002.81   -111436.18   -184.82449    273392.74  0.038991802 
    1100    204.09512    -111964.5   -111395.67   -123.93506     273197.5  0.039019666 
    1200     217.0892   -111958.35   -111353.31    224.43191    273027.94    0.0390439 
    1300    227.39221   -111943.67   -111309.92    437.79293    272917.83  0.039059651 
    1400    229.90614   -111907.01   -111266.25     70.28546    272871.16  0.039066332 
    1500    242.81753   -111899.41   -111222.66    117.21993    272818.43  0.039073882 
    1600    245.11912    -111862.7   -111179.54     134.4036    272750.43  0.039083624 
    1700    255.01091   -111846.35   -111135.62    254.90792    272706.31  0.039089947 
    1800    257.41758   -111808.74    -111091.3    101.92467     272715.4  0.039088644 
    1900    255.03454   -111760.32   -111049.52    245.29711    272732.62  0.039086176 
    2000     272.5219   -111766.64   -111007.11    253.87853     272742.8  0.039084718 
    2100    280.55724   -111748.68   -110966.75   -43.692805    272759.54  0.039082319 
    2200    293.07748   -111744.97   -110928.15    80.949681    272784.78  0.039078703 
    2300    296.87097   -111719.81   -110892.42   -97.431805    272839.81  0.039070821 
    2400     290.8387   -111669.18    -110858.6    420.45063    272856.31  0.039068459 
    2500    301.96825      -111670    -110828.4    219.52637     272831.1  0.039072068 
    2600    311.10432   -111667.77    -110800.7    84.650065       272785  0.039078671 
    2700    304.98309   -111627.86   -110777.86   -154.53673    272734.18  0.039085953 
    2800    311.51148   -111627.56   -110759.36    41.924091    272665.77   0.03909576 
    2900    312.13401   -111616.44    -110746.5    442.73425    272586.12  0.039107183 
    3000    313.14575   -111612.35    -110739.6    29.571862     272520.2  0.039116642 
    3100    319.39875   -111625.56   -110735.38   -165.29702    272466.94  0.039124289 
    3200    318.22115   -111622.37   -110735.47    76.793108    272384.24  0.039136167 
    3300    314.82429   -111618.71   -110741.27   -26.500675    272310.08  0.039146826 
    3400    313.72096   -111626.37   -110752.01   -84.294098    272277.45  0.039151518 
    3500    299.89844   -111604.18   -110768.34   -97.353536    272228.93  0.039158496 
    3600    301.26406   -111626.82   -110787.18   -92.928248    272096.94  0.039177491 
    3700    310.64742   -111674.41   -110808.62   -73.871447    271981.03  0.039194188 
    3800    292.41811    -111645.2   -110830.21    72.181991    271922.92  0.039202563 
    3900    304.90105   -111699.28   -110849.51   -114.77079    271910.83  0.039204306 
    4000     288.4925   -111669.78   -110865.73   -32.536891    271904.67  0.039205195 
    4100    289.12609   -111684.55   -110878.74   -127.53253    271936.14  0.039200657 
    4200     288.2148   -111691.39   -110888.12    78.695475    272004.47   0.03919081 
    4300    295.19908   -111716.64    -110893.9    9.9658835    272090.03  0.039178486 
    4400    301.14284   -111735.75   -110896.45    192.88026    272224.41  0.039159145 
    4500    280.44062   -111676.69   -110895.08   -307.08375    272393.86  0.039134786 
    4600    294.03105   -111710.45   -110890.97   -60.992447     272512.6  0.039117734 
    4700    290.05816   -111693.25   -110884.84    -205.7198     272613.5  0.039103256 
    4800    301.71225   -111718.11   -110877.22    231.10504       272707  0.039089849 
    4900    290.51519    -111675.4   -110865.72   -59.929755    272856.64  0.039068411 
    5000    302.85258   -111695.71   -110851.64    258.28649    273013.86  0.039045913 
    5100     304.1483   -111684.46   -110836.78    -212.6248    273124.12  0.039030151 
    5200    295.95581   -111648.32   -110823.48   -195.31572    273189.22  0.039020849 
    5300    303.18031    -111655.8   -110810.82    224.87804    273265.09  0.039010016 
    5400    306.44345   -111654.81   -110800.74    241.06036    273353.76  0.038997362 
    5500    299.40903   -111627.22   -110792.75   -41.332344    273424.93  0.038987211 
    5600    299.90494    -111623.2   -110787.34   -1.2073858    273435.07  0.038985765 
    5700     310.8827   -111651.46   -110785.01   -171.17752    273418.95  0.038988064 
    5800    303.24709   -111632.13   -110786.97    19.366514    273431.48  0.038986276 
    5900    319.68057   -111682.69   -110791.72    42.538324    273463.31  0.038981739 
    6000    314.36573   -111676.08   -110799.93    -108.2739    273517.17  0.038974062 
    6100     296.8959   -111636.88   -110809.42    239.16251    273599.87  0.038962282 
    6200    292.02172   -111631.89   -110818.01    111.77993    273719.89  0.038945199 
    6300    298.86806   -111657.95   -110824.98   -269.32027    273853.32  0.038926223 
    6400    294.34354   -111652.02   -110831.67    125.98666    273976.13  0.038908774 
    6500    293.54864   -111656.65   -110838.52    108.33257    274128.39  0.038887163 
    6600    303.46164   -111690.58   -110844.81   -228.00991    274284.87  0.038864978 
    6700    294.31005   -111669.65   -110849.39   -144.56879    274404.55  0.038848026 
    6800     299.3266   -111688.25   -110854.01    257.00108     274501.4   0.03883432 
    6900     297.5873   -111686.92   -110857.53   -187.35686    274584.42   0.03882258 
    7000    291.50892    -111672.4   -110859.95   -206.07436    274682.23  0.038808756 
    7100    286.11347   -111658.74   -110861.32   -40.176943    274790.25    0.0387935 
    7200    299.81667   -111696.22   -110860.61    236.90564    274869.44  0.038782323 
    7300    298.07889   -111690.17   -110859.41    271.53738    274992.04  0.038765032 
    7400    301.56047   -111696.65   -110856.18    91.220959    275184.28  0.038737952 
    7500    298.10751   -111684.62   -110853.78    282.08997       275378  0.038710701 
    7600    292.75081   -111663.69   -110847.77   -204.08959    275550.36  0.038686487 
    7700    303.24142   -111687.41   -110842.26    172.32637    275674.07  0.038669127 
    7800    300.76933   -111674.77   -110836.51   -392.89726    275774.84  0.038654997 
    7900    300.61731   -111668.57   -110830.74    138.33695    275860.62  0.038642977 
    8000    284.43937   -111617.15    -110824.4   -20.040112    275954.62  0.038629813 
    8100    302.76213   -111662.79   -110818.98   -65.704011    276048.36  0.038616695 
    8200    308.43781   -111674.52   -110814.89   -4.1796246    276182.96  0.038597875 
    8300    309.21592   -111672.19   -110810.39    33.709259    276300.57  0.038581445 
    8400    301.25658   -111646.58   -110806.96   -15.499766    276400.86  0.038567446 
    8500    301.52113   -111644.23   -110803.88   -35.216851    276482.45  0.038556065 
    8600    304.05123   -111649.18   -110801.77    113.83161    276558.13  0.038545514 
    8700    300.74725    -111640.5    -110802.3   -196.56284    276622.91  0.038536488 
    8800    307.43994   -111660.46   -110803.61   -77.633003    276650.25  0.038532679 
    8900     296.4338   -111631.85   -110805.67    -219.0356    276674.26  0.038529336 
    9000    293.80522   -111626.78   -110807.93    249.57548    276654.97  0.038532022 
    9100    300.41313   -111647.19   -110809.92    162.36563    276647.68  0.038533037 
    9200    310.70951   -111679.18   -110813.22    254.17698    276642.61  0.038533743 
    9300    310.69183    -111684.9   -110818.98    121.07001    276612.16  0.038537985 
    9400     292.5985   -111640.96   -110825.47   -158.46563    276583.73  0.038541946 
    9500     299.1826    -111666.6   -110832.76   -47.768775    276525.86  0.038550012 
    9600    302.98819   -111685.81   -110841.37    -131.6983     276417.1   0.03856518 
    9700    295.27014   -111672.42   -110849.48   -42.900674    276257.61  0.038587445 
    9800    295.64941   -111680.75   -110856.76   -217.29249    276045.61  0.038617079 
    9900      291.899   -111677.48   -110863.94   -13.493434    275826.11   0.03864781 
   10000    295.42013    -111693.6   -110870.25   -10.550839    275625.53  0.038675937 
   10100    293.96428   -111693.11   -110873.82    360.88534       275444  0.038701426 
   10200    292.38909   -111692.88   -110877.97    -287.6895    275298.55  0.038721872 
   10300    304.45416   -111729.88   -110881.35   -48.977423    275168.21  0.038740215 
   10400    299.00102    -111717.1   -110883.77    216.14957    275084.11  0.038752057 
   10500    288.39283   -111685.96   -110882.19    100.97948    275044.93  0.038757579 
   10600    288.27533   -111683.43   -110879.99   -155.25854    275036.01  0.038758835 
   10700    297.37097   -111704.56   -110875.77    282.73059    275034.29  0.038759077 
   10800    300.87481   -111708.42   -110869.86    139.74051    275061.14  0.038755294 
   10900    314.60859   -111739.24   -110862.41    81.063352    275085.84  0.038751814 
   11000    304.76131   -111703.13   -110853.74   -255.60087    275130.84  0.038745475 
   11100    305.64423   -111696.82   -110844.97    81.367846    275158.99  0.038741512 
   11200    313.16598    -111709.4   -110836.59   -137.73771    275153.43  0.038742294 
   11300    298.65559   -111664.31   -110831.94    116.97156    275136.93  0.038744619 
   11400    295.46122   -111652.52   -110829.05    -24.15552    275152.88  0.038742372 
   11500    302.65831   -111671.41   -110827.88   -5.1273428     275153.4  0.038742299 
   11600    296.87976   -111652.03   -110824.61   -300.95687    275138.85  0.038744348 
   11700    302.23291   -111663.21   -110820.87    168.81155    275091.69   0.03875099 
   11800    299.25483   -111650.57   -110816.53    64.528882     275072.5  0.038753693 
   11900     308.1694   -111671.59    -110812.7   -400.08599    275055.25  0.038756125 
   12000    307.03511   -111666.89   -110811.16    161.72038    275012.58  0.038762137 
   12100    299.38685    -111644.9   -110810.49   -191.49367    275001.46  0.038763704 
   12200    304.57389   -111659.17   -110810.31    306.18486    274995.86  0.038764494 
   12300    294.88154   -111632.96   -110811.11   -1.0569607    274984.85  0.038766046 
   12400    296.24634   -111636.75    -110811.1     95.48314    274877.23  0.038781223 
   12500    302.52088   -111656.01   -110812.87    169.84361    274709.32  0.038804927 
   12600     301.6652    -111655.2   -110814.44    501.05955     274544.2  0.038828267 
   12700    305.05527   -111668.61   -110818.41   -205.89452    274430.56  0.038844345 
   12800    303.36792   -111669.55   -110824.05    22.802761    274327.73  0.038858905 
   12900    308.85276   -111691.98   -110831.19   -121.82256    274185.95  0.038878999 
   13000    299.77882   -111675.68   -110840.18   -60.232693    273993.43  0.038906318 
   13100    295.16958      -111670   -110847.34   -52.575063    273821.79  0.038930705 
   13200    294.78362   -111674.63   -110853.05    155.49989    273707.18  0.038947006 
   13300    297.92489   -111688.82   -110858.49   -419.00691    273653.32  0.038954672 
   13400    296.73992   -111688.97   -110861.94    11.940703    273594.72  0.038963015 
   13500    293.81626   -111682.42   -110863.53   -234.02648    273539.45  0.038970888 
   13600    298.16454   -111694.24   -110863.24    129.29109    273461.94  0.038981934 
   13700    300.25954   -111698.18   -110861.34    194.03735    273409.77  0.038989372 
   13800    298.12246   -111689.29    -110858.4   -412.77131    273358.46  0.038996691 
   13900    298.75522      -111687   -110854.36   -154.38623    273263.39  0.039010257 
   14000    297.62169   -111680.41   -110850.92    38.605933    273179.39  0.039022253 
   14100    294.90766   -111666.87   -110844.94   -217.00703    273155.97  0.039025599 
   14200    297.02328   -111663.46   -110835.64     56.81721    273174.97  0.039022885 
   14300    300.00418    -111661.2   -110825.07   -130.58222     273132.7  0.039028924 
   14400    298.15164   -111645.61   -110814.64   -331.37284     273007.1  0.039046879 
   14500    300.05335   -111640.85   -110804.58    -26.53026    272803.17  0.039076069 
   14600    300.89653   -111637.97   -110799.35   -205.24593    272615.14  0.039103021 
   14700    305.76312   -111646.58    -110794.4    361.23489    272441.66  0.039127919 
   14800    310.02343   -111655.89   -110791.84    355.46315    272323.07  0.039144959 
   14900    302.81243   -111637.33   -110793.37   -36.888481     272208.3  0.039161463 
   15000    295.92471   -111622.84   -110798.08    188.71689    272048.82   0.03918442 
   15100    304.44998   -111654.21   -110805.69   -125.71082     271831.8  0.039215704 
   15200    304.42828   -111666.25   -110817.79   -129.26596    271609.46  0.039247806 
   15300    306.58209   -111689.64   -110835.18     239.3762    271416.81  0.039275664 
   15400    304.21374   -111701.09   -110853.23   -81.022374    271300.82  0.039292456 
   15500    288.29691    -111668.9    -110865.4   -76.312696    271239.97   0.03930127 
   15600    287.80459   -111673.31   -110871.18    51.463533    271185.96  0.039309097 
   15700    287.83916   -111674.78   -110872.55    47.888271    271079.84  0.039324487 
   15800    295.15445   -111692.37   -110869.76    167.17642    270921.26  0.039347504 
   15900    297.32204    -111694.9   -110866.24   -88.407336    270774.85  0.039368779 
   16000    290.22304   -111669.26   -110860.39    134.35434    270629.09  0.039389983 
   16100     298.3668   -111684.87    -110853.3   -105.33979    270499.08  0.039408916 
   16200    295.83559   -111669.49   -110844.98    93.199239    270395.47  0.039424016 
   16300    302.29802   -111679.18   -110836.66    385.44996    270350.29  0.039430605 
   16400    294.47071   -111649.13   -110828.42   -71.256934     270327.8  0.039433884 
   16500    301.53302   -111659.14   -110818.75   -73.808138    270255.05    0.0394445 
   16600    300.72161   -111649.24   -110811.11   -194.25392    270157.12  0.039458799 
   16700    308.51541   -111667.68   -110807.83    -168.6456    270050.29  0.039474407 
   16800    303.20263   -111650.72   -110805.67   -85.816692    269963.46  0.039487104 
   16900    309.64573   -111667.92   -110804.92   -110.16777    269900.37  0.039496334 
   17000    301.01276   -111642.93   -110803.99   -243.40157    269867.13    0.0395012 
   17100     300.4569   -111641.28   -110803.89    4.3780707     269809.2  0.039509681 
   17200    304.81051   -111654.75   -110805.23   -303.88728    269671.52  0.039529853 
   17300    285.34117   -111602.46   -110807.19    108.47963    269471.38  0.039559212 
   17400    293.97433   -111628.94   -110809.62    311.48475    269299.59  0.039584446 
   17500    298.39433   -111644.65   -110813.01    347.62574     269156.7  0.039605462 
   17600    296.48039   -111646.72   -110820.42   -88.102395    269040.21  0.039622611 
   17700    290.46627   -111640.49   -110830.94    133.97119    268913.96  0.039641212 
   17800    300.90905   -111680.79   -110842.14    181.75519    268769.45  0.039662526 
   17900    302.01063   -111695.96   -110854.24    43.209627    268607.59  0.039686426 
   18000    285.80522   -111659.92   -110863.37   -64.649794    268388.52   0.03971882 
   18100    288.14755   -111673.13   -110870.04   -102.64052    268120.52  0.039758522 
   18200    291.46212    -111687.2   -110874.88    395.81821    267804.99  0.039805365 
   18300    287.68511   -111676.66   -110874.87   -107.89216     267511.6  0.039849021 
   18400     287.5708   -111673.61   -110872.14    44.274836    267216.83  0.039892979 
   18500    282.49355   -111652.25   -110864.92    207.78446    266897.94  0.039940644 
   18600    291.49516   -111666.15   -110853.74   -202.51853    266549.91  0.039992793 
   18700    307.09149   -111696.61   -110840.73     462.8901    266189.17  0.040046991 
   18800    303.00672   -111673.09   -110828.59   -108.57426    265860.47  0.040096503 
   18900    302.43366   -111661.46   -110818.56    174.05114    265524.47  0.040147243 
   19000    308.89092   -111671.91   -110811.01   -127.41569    265172.37  0.040200551 
   19100    312.99403   -111678.86   -110806.53   -61.771991    264845.08   0.04025023 
   19200    298.36482   -111634.37   -110802.81     14.60243    264524.99  0.040298934 
   19300    288.76516   -111604.96   -110800.15    81.222913    264257.69  0.040339699 
   19400    310.63233    -111664.9   -110799.15    465.60963    264012.25  0.040377199 
   19500    302.05331   -111640.51   -110798.67   -164.55171    263808.07  0.040408451 
   19600    314.34667   -111676.53   -110800.43   -265.65715    263630.79  0.040435623 
   19700    293.37369   -111621.57   -110803.92    -238.7517    263451.39  0.040463159 
   19800    300.68565   -111645.19   -110807.17    83.556164    263220.43  0.040498662 
   19900    304.04902   -111659.39   -110811.99    57.424693    262940.64  0.040541757 
   20000    305.96028   -111671.28   -110818.56    144.13344    262658.61  0.040585289 
   20100    306.98818   -111684.84   -110829.24   -15.351946    262413.32  0.040623225 
   20200    299.13746   -111678.19   -110844.47   -189.05788    262188.06  0.040658127 
   20300    290.96046   -111677.29   -110866.37    10.928442    261947.16  0.040695518 
   20400    290.38359   -111695.25   -110885.93    103.97496    261654.06  0.040741105 
   20500    281.08274   -111680.99    -110897.6   -53.804797    261312.97  0.040794283 
   20600    294.57916   -111723.37   -110902.36    144.95588    260973.47  0.040847353 
   20700    295.43984   -111725.76   -110902.35   -115.17669    260665.12  0.040895673 
   20800    280.42601    -111681.9   -110900.34    40.433774     260365.6  0.040942718 
   20900     290.8447    -111704.2    -110893.6   -23.918434    260081.19  0.040987491 
   21000    284.67612   -111677.63   -110884.22   -153.77884    259810.31  0.041030225 
   21100    290.51166   -111682.85   -110873.17   -122.83021     259533.4  0.041074002 
   21200    298.69108   -111694.74   -110862.27    172.62766     259249.3  0.041119014 
   21300    295.90646   -111675.45   -110850.74   -276.26293    258934.13  0.041169062 
   21400    298.24025   -111673.04   -110841.83   -297.71607    258581.15  0.041225261 
   21500    294.41363   -111654.07   -110833.52    263.51574    258193.21  0.041287202 
   21600    307.28544   -111682.89   -110826.47    133.36084    257778.01  0.041353704 
   21700    301.28302   -111661.14   -110821.45   -136.34996    257359.57   0.04142094 
   21800    304.99526   -111667.34    -110817.3   -198.35906    256951.21  0.041486769 
   21900    297.86716   -111644.29   -110814.11    120.77612    256540.73  0.041553149 
   22000    286.74284   -111608.22   -110809.06   -17.479179    256167.45    0.0416137 
   22100    299.00409   -111638.48   -110805.14   -133.81434    255836.31  0.041667562 
   22200    301.12235   -111640.32   -110801.07    3.7916127    255519.29  0.041719259 
   22300    318.54632   -111687.29   -110799.49    15.149395    255222.83  0.041767718 
   22400    312.28964   -111669.66   -110799.29     23.54478    254944.07  0.041813388 
   22500     304.4583   -111651.85   -110803.31   -46.511818    254667.22  0.041858844 
   22600    308.63274   -111672.66   -110812.48    251.16929    254377.24  0.041906561 
   22700    300.51779   -111665.96    -110828.4    63.954775    254130.31   0.04194728 
   22800    296.58805   -111675.49   -110848.89   -260.41406    253934.29  0.041979661 
   22900    287.61561   -111666.76   -110865.16   -97.835999    253746.28  0.042010765 
   23000    283.86413   -111665.01   -110873.87    17.995498    253566.27  0.042040589 
   23100    290.39033    -111686.8   -110877.47    69.328641    253405.74  0.042067221 
   23200    295.90807   -111702.51    -110877.8    -13.87171    253284.48  0.042087361 
   23300    289.10549   -111681.06    -110875.3    20.254178    253157.05  0.042108546 
   23400    293.97345   -111689.93   -110870.61   -157.71144    253034.55  0.042128932 
   23500    289.66645   -111671.37   -110864.06    -175.0516    252910.24  0.042149639 
   23600    291.38141   -111667.45   -110855.35    14.649789    252786.24  0.042170315 
   23700    300.84582   -111682.73   -110844.25   -211.12234    252661.14  0.042191195 
   23800    302.08051   -111676.58   -110834.66   -107.75656    252495.21  0.042218922 
   23900    297.12567   -111654.61    -110826.5   -20.885844    252301.52  0.042251333 
   24000    295.10126      -111641   -110818.54   -268.50503    252096.09  0.042285763 
   24100    299.25945   -111646.11   -110812.06    407.31217    251844.33  0.042328034 
   24200    295.82853   -111630.98   -110806.49   -7.4257478    251551.75  0.042377266 
   24300    298.05843   -111632.57   -110801.86    74.256274    251202.09  0.042436253 
   24400    298.77902   -111631.26   -110798.55   -22.995448    250837.79  0.042497884 
   24500    312.13041   -111665.48   -110795.55   -319.17684    250506.74  0.042554047 
   24600    306.30051   -111648.97    -110795.3   -59.142316    250167.99  0.042611669 
   24700    301.15091   -111635.26   -110795.93   0.65255705    249836.53  0.042668201 
   24800    291.94093      -111611   -110797.35   -64.218716    249498.04  0.042726088 
   24900    306.37678   -111653.25   -110799.36   -169.33684    249203.34  0.042776615 
   25000    296.73152   -111629.26   -110802.25    192.31823    248955.35  0.042819227 
   25100    303.67593   -111651.45   -110805.09   -80.730235    248736.32  0.042856931 
   25200     297.1801   -111636.59   -110808.33   -43.687396    248517.58  0.042894654 
   25300    303.15558   -111657.11   -110812.19    -36.95553    248295.31  0.042933052 
   25400    309.19503   -111679.81   -110818.07   -191.84009    248068.64  0.042972281 
   25500    303.51925   -111672.12   -110826.19    355.13152    247834.46  0.043012887 
   25600    298.18821   -111668.88   -110837.81   -104.06345     247602.7  0.043053147 
   25700    293.63979   -111674.42   -110856.03    29.511194     247349.8  0.043097165 
   25800    289.42732    -111683.8   -110877.15   -33.273267    247066.87  0.043146519 
   25900    292.07718   -111706.15   -110892.12   -115.91295    246762.99  0.043199653 
   26000     288.3917   -111704.54   -110900.78    43.611163    246469.48  0.043251097 
   26100    288.45145   -111705.69   -110901.76   -28.349898    246224.95  0.043294051 
   26200    284.16377   -111691.46   -110899.48    41.614559    246020.71  0.043329992 
   26300    295.57186   -111717.71   -110893.94    110.08914    245825.68  0.043364368 
   26400    290.93875   -111698.67   -110887.81   -101.27363     245629.1  0.043399073 
   26500    287.92479   -111681.11   -110878.65     183.5875    245427.51   0.04343472 
   26600    299.77049   -111703.26   -110867.78    248.84832    245243.04  0.043467391 
   26700    302.74389   -111702.38   -110858.61    131.40878    245033.69  0.043504529 
   26800     288.5223   -111653.84   -110849.71    -92.88374    244796.38  0.043546704 
   26900    295.37539   -111663.82   -110840.59   -130.98348    244569.42  0.043587114 
   27000    299.07601   -111667.01   -110833.47    156.69062    244378.53  0.043621161 
   27100    300.43053   -111665.28   -110827.96   -143.74976    244189.44   0.04365494 
   27200    305.06839   -111673.81   -110823.57   -110.75766    243961.86  0.043695664 
   27300    298.51728   -111652.94   -110820.95    25.611835    243705.61  0.043741609 
   27400    308.21999   -111678.25   -110819.23    367.26773     243440.7  0.043789207 
   27500    300.16914   -111655.42   -110818.83    292.93837     243181.8  0.043835828 
   27600    299.78227   -111654.57   -110819.06     217.5133    242959.39  0.043875956 
   27700    313.43555   -111692.89   -110819.33    129.32764    242740.43  0.043915532 
   27800    304.84145   -111670.44   -110820.83    382.23866    242542.71  0.043951333 
   27900    290.94677    -111635.6   -110824.72   -334.92917    242316.66  0.043992334 
   28000    293.92148   -111648.96   -110829.78    188.50724    242029.28  0.044044568 
   28100    304.93805   -111687.92   -110838.04   -89.190181    241737.19  0.044097788 
   28200    303.46649   -111694.65   -110848.87    97.638103     241473.9   0.04414587 
   28300     285.6987   -111657.21   -110860.95   -56.654056    241230.41  0.044190429 
   28400    289.61458   -111679.62   -110872.45   -315.70963    241003.05  0.044232118 
   28500    290.33578   -111689.72   -110880.54     129.2985    240760.63  0.044276655 
   28600    289.63155   -111691.54   -110884.32   -194.05683    240531.66  0.044318804 
   28700    290.16868   -111693.43   -110884.71    109.96735    240299.94   0.04436154 
   28800    297.60113    -111711.8   -110882.37    236.50222    240064.87  0.044404978 
   28900    291.01854   -111686.94   -110875.85   -198.10318    239817.31  0.044450817 
   29000    293.19351   -111681.12   -110863.97    266.87664    239524.46  0.044505163 
   29100    297.33461   -111676.75   -110848.06   -100.30588    239228.25  0.044560271 
   29200    304.06242   -111680.12   -110832.68    143.06689    238930.37  0.044615824 
   29300    302.74448   -111664.98   -110821.22   -27.661148    238661.89  0.044666014 
   29400    307.33561   -111669.61   -110813.05    299.29163     238377.4  0.044719321 
   29500     303.0606   -111653.36   -110808.71   -393.81097    238115.15  0.044768573 
   29600    301.26213   -111646.37   -110806.73    280.98535    237878.12  0.044813182 
   29700    307.15727   -111660.96    -110804.9    27.266667    237685.76  0.044849448 
   29800    301.42745   -111644.24   -110804.14    7.2355228    237526.91  0.044879442 
   29900    299.99884   -111640.35   -110804.23   -291.80101    237404.26  0.044902629 
   30000    304.87599   -111656.96   -110807.25   -220.25632    237236.96  0.044934294 
   30100     290.3239   -111619.75    -110810.6    240.30697     237022.6  0.044974931 
   30200    299.40089   -111648.78   -110814.33    62.710984     236820.8  0.045013257 
   30300    304.00017   -111666.99   -110819.72    156.12716    236649.65   0.04504581 
   30400    306.02625   -111681.01    -110828.1    320.81294    236492.29  0.045075783 
   30500    298.87914    -111671.5   -110838.51   -92.712654    236329.52   0.04510683 
   30600    295.41056   -111675.18   -110851.86    53.975195    236121.58  0.045146552 
   30700     287.7597   -111668.96   -110866.95     88.64295    235881.07  0.045192584 
   30800    290.36066   -111689.48   -110880.23    130.35274    235635.09  0.045239762 
   30900    283.76768   -111679.71   -110888.84   -36.534526    235412.63  0.045282512 
   31000    293.25871   -111711.09   -110893.76    93.718469    235213.98  0.045320756 
   31100    284.52991   -111687.56   -110894.56    59.669873    235029.43  0.045356343 
   31200    293.46728   -111710.24   -110892.33   -252.47568    234850.88  0.045390826 
   31300      288.013   -111689.53   -110886.82   -109.46034    234625.49   0.04543443 
   31400    291.85233    -111693.6   -110880.19    63.363835    234359.41  0.045486014 
   31500    295.51843   -111697.18   -110873.55   -74.936813     234037.4  0.045548598 
   31600    298.25254   -111698.78   -110867.53    383.34944    233699.25  0.045614503 
   31700    292.11571   -111676.02   -110861.88   -122.21369     233418.4  0.045669388 
   31800    296.63718   -111683.23   -110856.49   -300.46858    233195.31  0.045713078 
   31900    297.28133   -111678.15   -110849.61     143.9817     232999.7  0.045751454 
   32000    298.33568   -111674.33   -110842.85    396.96945    232843.42  0.045782162 
   32100    292.15058   -111650.32   -110836.08   -92.020018    232688.12  0.045812719 
   32200    298.04422   -111660.43   -110829.77   -142.36591    232569.52  0.045836082 
   32300    307.17486   -111679.77   -110823.66    85.115161    232480.16    0.0458537 
   32400    298.24798   -111649.65   -110818.42   -183.49839    232421.74  0.045865224 
   32500     295.2872   -111635.58   -110812.59   -263.19806    232368.44  0.045875745 
   32600    311.99849   -111677.39   -110807.83    339.29026    232273.52  0.045894493 
   32700     302.8131   -111649.02   -110805.06    41.679464    232195.88  0.045909839 
   32800     306.9749   -111659.59   -110804.04   -135.17239     232128.3  0.045923204 
   32900     300.3781   -111641.23   -110804.06   -107.68681    232062.06  0.045936314 
   33000      309.129   -111668.19   -110806.63    47.836748    231942.79  0.045959935 
   33100    302.51488   -111654.21   -110811.09   -66.037289    231769.87  0.045994225 
   33200    294.09861   -111636.47    -110816.8   -226.24338    231557.14  0.046036479 
   33300    305.83113   -111677.11   -110824.74   -142.33127    231303.94  0.046086873 
   33400    302.91507   -111677.53   -110833.29   -385.67224    231021.24  0.046143269 
   33500    295.71645   -111667.68    -110843.5   -74.042396    230740.18  0.046199475 
   33600    289.03243   -111655.99   -110850.44   -180.03787    230463.92  0.046254855 
   33700    293.48093   -111675.69   -110857.74   -4.2600721    230187.05  0.046310492 
   33800     286.4706   -111660.33   -110861.92   -114.89493    229901.26   0.04636806 
   33900    287.73294   -111664.72   -110862.79   -122.15003    229601.97    0.0464285 
   34000    288.23821   -111664.64    -110861.3     129.3877    229275.04  0.046494704 
   34100    284.71789   -111649.94   -110856.41   -258.56637    228940.99  0.046562546 
   34200    303.61692   -111692.19   -110845.99    145.64782    228614.79  0.046628985 
   34300     293.1328    -111650.3   -110833.32    63.249591    228357.13  0.046681596 
   34400    304.25713   -111664.77   -110816.79   -35.289459    228140.83  0.046725855 
   34500    305.84112   -111655.96   -110803.56    340.33157    227946.94  0.046765599 
   34600    302.10675   -111636.88   -110794.89    190.16178    227787.99  0.046798233 
   34700    313.56374   -111663.17   -110789.25   -95.632652    227670.08  0.046822469 
   34800    310.11422   -111651.63   -110787.32    29.265164    227558.24  0.046845481 
   34900    309.09206   -111648.22   -110786.77    554.36526    227435.24  0.046870816 
   35000    295.63372   -111612.62   -110788.67    9.2376025    227319.33  0.046894715 
   35100    309.45875   -111655.62   -110793.14    426.02812    227248.85  0.046909259 
   35200    317.20277   -111683.14   -110799.08    363.75777    227223.88  0.046914415 
   35300    305.58035   -111657.89   -110806.22   -95.797965    227220.45  0.046915123 
   35400    298.08409    -111644.3   -110813.52   -19.828653    227214.41   0.04691637 
   35500    299.28955   -111653.39   -110819.26    144.97771    227194.68  0.046920444 
   35600    300.55109   -111661.48   -110823.82    9.4823851    227150.22  0.046929629 
   35700    297.68027   -111656.24   -110826.59    118.09733    227113.89  0.046937135 
   35800    310.04689   -111691.81   -110827.69   -106.92191    227075.56  0.046945059 
   35900    305.83024   -111680.72   -110828.35   -4.7888858    227045.62  0.046951248 
   36000    282.61382   -111615.82   -110828.16    21.084185    227040.09  0.046952392 
   36100    299.76929   -111661.43   -110825.96   -232.12534    227027.41  0.046955016 
   36200    294.59937   -111644.77    -110823.7   -202.72936    227000.49  0.046960584 
   36300    296.01882   -111646.09   -110821.07   -253.45636    226952.81  0.046970448 
   36400    295.34607   -111641.36   -110818.22   -297.20306    226913.12  0.046978665 
   36500    301.12845   -111653.67   -110814.41   -154.11186       226876   0.04698635 
   36600    300.20606   -111648.63   -110811.93   -350.03564    226822.04  0.046997528 
   36700    306.86333   -111663.49   -110808.24    158.32292    226691.54  0.047024584 
   36800    303.03569   -111648.57   -110803.99   -223.46255    226542.15  0.047055594 
   36900    309.30215   -111660.84    -110798.8    86.171157    226402.63  0.047084591 
   37000    295.79638   -111617.32   -110792.92    153.33661    226271.69   0.04711184 
   37100    310.67935   -111651.98    -110786.1    114.10419    226145.95  0.047138034 
   37200    312.67176   -111649.05   -110777.62   -194.14434    226062.28  0.047155481 
   37300    310.89408   -111635.58    -110769.1   -168.68758    226020.61  0.047164175 
   37400     313.2555   -111635.32   -110762.26   -270.19694    226004.97  0.047167437 
   37500    306.49772    -111614.2   -110759.97     349.5739    225961.73  0.047176463 
   37600    313.78708   -111634.62   -110760.08   -281.09707    225889.75  0.047191497 
   37700    316.13283   -111646.12   -110765.04    198.93508    225801.79   0.04720988 
   37800     300.5226   -111611.93   -110774.36   -320.46261    225711.13  0.047228842 
   37900    291.85169   -111601.53   -110788.12    370.67721    225606.19   0.04725081 
   38000    307.30329   -111658.15   -110801.68    90.894557    225479.76  0.047277305 
   38100    303.38488   -111660.54   -110814.99   -470.86515    225350.34  0.047304457 
   38200    293.08933   -111642.48   -110825.62    133.61768    225242.15  0.047327179 
   38300    295.56933   -111658.18   -110834.41    -311.8476    225173.25  0.047341659 
   38400    305.01087   -111690.23   -110840.15   -474.56672    225104.32  0.047356155 
   38500    294.51816   -111665.43   -110844.59   -249.60107    224983.26  0.047381638 
   38600     295.1289   -111670.28   -110847.74   -646.47915    224832.06  0.047413501 
   38700    296.07661   -111675.32   -110850.14    431.71971    224676.61  0.047446306 
   38800    308.82625   -111713.61   -110852.89    33.257229    224554.38  0.047472134 
   38900    290.99358   -111664.39   -110853.37    29.755513    224459.99  0.047492096 
   39000    291.27286   -111665.87   -110854.08   -221.74825    224391.84  0.047506519 
   39100    288.49107   -111659.16   -110855.12   -301.40559    224294.61  0.047527112 
   39200    295.72025   -111679.08   -110854.89   -159.84002    224160.09  0.047555635 
   39300    291.07254   -111664.79   -110853.55   -174.14027    224011.26   0.04758723 
   39400    299.54306   -111684.62   -110849.77    -6.047654    223851.27  0.047621242 
   39500    297.37125   -111672.32   -110843.53   -87.529251    223679.74  0.047657761 
   39600    309.72353   -111695.58   -110832.37    -395.9773    223500.84  0.047695907 
   39700    297.12663   -111648.81    -110820.7    293.64265    223360.79  0.047725814 
   39800    306.17648   -111660.26   -110806.93    390.30479    223286.15  0.047741767 
   39900    316.87379   -111679.45    -110796.3   -192.57483    223235.94  0.047752504 
   40000    305.96598   -111641.98   -110789.24   -39.884144    223129.27  0.047775334 
   40100    305.63406    -111636.8   -110784.98   -74.719832    222980.78  0.047807149 
   40200    299.56988   -111619.35   -110784.43    122.31719     222832.7  0.047838917 
   40300    315.22953   -111666.09   -110787.52   -69.898047    222715.41  0.047864112 
   40400    310.89215   -111662.31   -110795.84   -173.66952    222606.46  0.047887537 
   40500    301.37616   -111647.31   -110807.36   -151.23911    222504.35  0.047909514 
   40600    299.21878   -111655.27   -110821.33    260.05391    222378.76  0.047936572 
   40700    303.39824   -111679.85   -110834.26    20.264118    222239.23  0.047966668 
   40800    306.59449   -111699.07   -110844.58    128.80075    222101.07  0.047996505 
   40900    304.71161   -111700.07   -110850.82   -19.671335    221941.24   0.04803107 
   41000    282.28784   -111641.29   -110854.54   -82.021092    221792.83  0.048063209 
   41100    304.50646   -111703.02   -110854.35    279.10674    221651.05  0.048093953 
   41200    292.00638   -111668.48   -110854.64    -368.4358    221550.32  0.048115819 
   41300    307.02669   -111708.13   -110852.43    77.583807    221455.74   0.04813637 
   41400    300.66607   -111687.71   -110849.73    358.82963    221398.11    0.0481489 
   41500    294.52377   -111667.97   -110847.12     413.3692     221369.5  0.048155122 
   41600    305.41728   -111695.91    -110844.7    16.277833    221340.47  0.048161439 
   41700    297.12398   -111670.93   -110842.83   -210.87542    221289.67  0.048172495 
   41800    301.91128   -111680.47   -110839.03   -421.64359    221254.34  0.048180186 
   41900    299.89637   -111671.16   -110835.33   -391.64925    221264.18  0.048178045 
   42000    300.37671   -111665.61   -110828.45   -101.56434    221278.02   0.04817503 
   42100    301.24179   -111656.71   -110817.13    81.719042    221301.23  0.048169979 
   42200    298.77805   -111634.48   -110801.77   -99.943424    221316.16  0.048166729 
   42300    315.09639   -111661.06   -110782.87    283.06166    221328.76  0.048163986 
   42400    313.94032   -111640.46   -110765.49   -403.03229    221326.89  0.048164392 
   42500    307.60111   -111612.94   -110755.64   -162.33345    221287.85  0.048172891 
   42600    312.95263   -111623.38   -110751.16     321.7519    221262.94  0.048178314 
   42700    317.17275   -111635.91   -110751.93   -128.29152    221256.74  0.048179664 
   42800    294.56593   -111578.51   -110757.54    180.92504    221231.17  0.048185232 
   42900    308.69025   -111624.26   -110763.93    90.527038    221200.62  0.048191888 
   43000    309.98617    -111634.6   -110770.65   -128.85026    221181.06   0.04819615 
   43100    309.58327    -111641.8   -110778.97    105.27243    221188.95   0.04819443 
   43200    296.07364   -111613.47    -110788.3   -582.12266    221172.83  0.048197943 
   43300    307.41562   -111652.33   -110795.54   -321.80171    221109.51  0.048211744 
   43400    309.37219   -111664.94    -110802.7    62.282092    221036.21  0.048227734 
   43500    300.73627    -111647.2   -110809.03   -96.213585    220980.43  0.048239908 
   43600    295.96865   -111639.07   -110814.19   -348.63576    220901.37  0.048257172 
   43700    298.67979   -111648.56   -110816.12     224.0334    220802.12  0.048278863 
   43800    304.71807   -111668.73   -110819.46   -50.627002    220712.31  0.048298508 
   43900    299.23441   -111656.08    -110822.1   -303.19964    220584.51  0.048326492 
   44000    290.06569   -111632.64   -110824.21   -346.53699    220409.01   0.04836497 
   44100    293.40864   -111643.82   -110826.07   -117.80228    220220.44  0.048406384 
   44200    299.17267    -111659.8   -110825.99   -238.71084    220026.93  0.048448958 
   44300    302.11712   -111667.24   -110825.22   -85.424559    219819.37  0.048494704 
   44400     308.9038   -111687.78   -110826.85   -263.59536    219581.24  0.048547295 
   44500    304.66564   -111678.44   -110829.32     -27.5196    219326.25  0.048603737 
   44600    302.94479   -111676.97   -110832.65   -96.690463    219092.16  0.048655668 
   44700    300.56798   -111676.29   -110838.59    206.58834    218898.38  0.048698741 
   44800    297.38948   -111675.03   -110846.19    104.02556     218723.6  0.048737655 
   44900     302.7129   -111698.84   -110855.16    205.70334    218504.72  0.048786477 
   45000    296.90129   -111692.32   -110864.84    390.27265    218252.12  0.048842941 
   45100    301.25687   -111713.48   -110873.86   -210.96407    218016.86  0.048895647 
   45200    289.47317   -111686.99   -110880.21    20.711846    217799.99  0.048944335 
   45300    292.00718   -111696.82   -110882.98    95.081196    217613.15  0.048986358 
   45400    288.82998   -111690.15   -110885.16    306.66986    217462.23  0.049020353 
   45500    289.52188   -111688.29   -110881.37    126.51438    217348.21  0.049046069 
   45600    287.19591   -111676.14   -110875.71    496.32854    217244.41  0.049069503 
   45700    295.65185   -111689.48   -110865.48   -297.55309    217132.88  0.049094709 
   45800    295.35872   -111676.61   -110853.43     104.8111    216971.12   0.04913131 
   45900    301.68097   -111681.45   -110840.65    285.59833    216793.53  0.049171556 
   46000    305.27567   -111680.43    -110829.6    179.44509    216631.54  0.049208325 
   46100    294.38152   -111643.01   -110822.55    253.13267    216506.91  0.049236653 
   46200    300.70367   -111654.49   -110816.41   -283.97475    216412.79  0.049258066 
   46300    305.03276   -111662.43   -110812.29    -423.9722    216311.05  0.049281234 
   46400    301.66803   -111649.79   -110809.03   -15.980837    216183.03  0.049310418 
   46500    306.25653   -111660.19   -110806.63    371.90622    216042.85  0.049342412 
   46600    313.68111   -111678.68   -110804.43    -318.0448    215919.48  0.049370605 
   46700    300.51169   -111640.56   -110803.01    200.91295    215805.32  0.049396722 
   46800    307.31678    -111659.2   -110802.69    72.266031    215706.46   0.04941936 
   46900    301.16583   -111641.12   -110801.75    271.25008    215606.44  0.049442286 
   47000    306.32286   -111655.71   -110801.97    -140.7564    215483.48  0.049470499 
   47100    308.44962   -111662.06   -110802.39    227.48807    215318.98  0.049508294 
   47200    304.52319   -111654.14   -110805.42    411.80135    215158.67  0.049545181 
   47300    297.78014   -111643.04   -110813.11   -151.24016    215029.04   0.04957505 
   47400    304.57664   -111677.16   -110828.29   -222.94467    214927.33  0.049598511 
   47500    301.59134   -111688.24   -110847.69    447.81948    214827.36  0.049621591 
   47600    290.52525   -111673.95   -110864.24   -332.23168    214712.03  0.049648245 
   47700    296.88594   -111703.41   -110875.97    985.46412    214580.78  0.049678613 
   47800    294.87941   -111703.84   -110881.99   -122.49272    214467.77  0.049704789 
   47900    286.19438   -111683.21   -110885.57    418.40651     214355.8  0.049730754 
   48000    296.17247   -111710.39   -110884.94    168.44303    214286.92  0.049746737 
   48100      295.934   -111705.62   -110880.84   -220.40028    214234.06  0.049759012 
   48200    289.65687   -111679.77   -110872.48   -189.32114    214196.82  0.049767663 
   48300    292.55889   -111677.64   -110862.26    267.83521    214165.67  0.049774903 
   48400    293.59567   -111667.73   -110849.46   -215.04965    214145.35  0.049779625 
   48500    298.61344   -111669.51   -110837.26    440.06143    214146.35  0.049779393 
   48600    295.37447   -111649.92    -110826.7    107.33882    214146.12  0.049779447 
   48700    307.45248   -111675.04   -110818.15   -276.38882    214125.92  0.049784144 
   48800    309.11059   -111674.47   -110812.96    339.02753    214091.47  0.049792154 
   48900    299.94554   -111646.45   -110810.49    239.35571    214044.17  0.049803157 
   49000    292.06389   -111623.32   -110809.32   -254.64911    213959.37  0.049822896 
   49100    305.36311   -111659.83   -110808.76    68.381991    213837.68  0.049851248 
   49200    301.03688      -111648      -110809     91.92001    213696.82  0.049884108 
   49300    300.13904    -111646.4   -110809.89    64.446751    213571.47  0.049913386 
   49400    305.87009   -111665.18    -110812.7    56.864538    213467.24  0.049937758 
   49500    295.91916   -111640.02   -110815.28   -278.22023    213362.33  0.049962311 
   49600    307.32533   -111677.28   -110820.74   -373.21658    213206.29  0.049998878 
   49700    294.40828   -111650.02   -110829.48    187.06384    212983.34  0.050051218 
   49800    299.68373   -111679.07   -110843.84    480.68721    212755.58  0.050104798 
   49900    294.68013   -111683.25   -110861.96    68.563932    212560.06  0.050150885 
   50000    290.42888   -111688.49   -110879.05    101.87531    212398.99  0.050188916 
   50100    294.40633   -111709.68   -110889.15   -170.55779    212245.26  0.050225269 
   50200    284.03554   -111685.97   -110894.35   -256.23934    212090.22  0.050261984 
   50300    298.46444   -111726.08   -110894.24   -92.654473    211925.95  0.050300944 
   50400    292.50113   -111705.75   -110890.53    40.528063    211737.67  0.050345672 
   50500    289.96638   -111692.75   -110884.59   -391.01589    211564.42    0.0503869 
   50600    286.53781   -111674.42   -110875.83     129.4185    211425.17  0.050420086 
   50700    295.00808   -111687.18   -110864.98    445.81596    211326.06  0.050443732 
   50800    299.18817   -111688.72   -110854.86    149.20934    211258.79  0.050459795 
   50900     301.0158   -111685.73   -110846.78   -472.78024    211187.75  0.050476769 
   51000    292.46559    -111656.4   -110841.28    14.971202    211093.48  0.050499312 
   51100    295.42192   -111661.16    -110837.8    100.89263    211008.86  0.050519563 
   51200     296.8022   -111662.56   -110835.35    2.3640299    210945.05  0.050534845 
   51300    291.34559   -111646.22   -110834.22   -174.65733    210923.53  0.050540001 
   51400    302.31668   -111675.23   -110832.66    370.53923    210910.42  0.050543142 
   51500    303.29348   -111677.75   -110832.45    -42.68593    210883.05  0.050549703 
   51600    298.83391   -111665.31   -110832.44     -284.311    210826.83  0.050563181 
   51700    291.93869   -111645.84   -110832.19   -197.33887    210743.97  0.050583062 
   51800    302.79356   -111675.54   -110831.64    99.678376    210647.34  0.050606267 
   51900     290.0618   -111640.23   -110831.82    198.33006    210535.85  0.050633064 
   52000    294.85057   -111651.07    -110829.3    81.235822     210430.7  0.050658366 
   52100    295.59316   -111650.53    -110826.7    267.66788    210355.96  0.050676364 
   52200    306.38497   -111674.65   -110820.73    148.44054    210302.81  0.050689172 
   52300    305.92409    -111662.2   -110809.57   -161.02288    210206.26  0.050712455 
   52400    301.05841   -111632.66    -110793.6   -461.48469    210062.68  0.050747116 
   52500    305.99836   -111627.93   -110775.09    79.880904    209860.28   0.05079606 
   52600    312.88812   -111631.99   -110759.95   -156.08519    209642.21  0.050848898 
   52700    315.08381   -111628.96    -110750.8    304.26574    209416.36  0.050903737 
   52800     314.4962   -111624.78   -110748.27    226.31819    209179.59  0.050961355 
   52900    312.85994      -111623   -110751.04     -96.5304    208924.47  0.051023585 
   53000    317.35411   -111641.78   -110757.29   -195.66617    208705.46  0.051077127 
   53100    314.76946   -111646.77   -110769.49     142.1808    208490.54  0.051129779 
   53200    310.29459   -111650.03   -110785.22   -242.42079    208293.18  0.051178225 
   53300    305.76011   -111652.68   -110800.51    73.189096    208123.18  0.051220028 
   53400    297.22637   -111640.55   -110812.17    620.04068    208005.23  0.051249074 
   53500     301.5841   -111660.31   -110819.78   -197.47901    207937.61   0.05126574 
   53600    291.72036   -111637.98   -110824.94   -257.82292     207871.6  0.051282019 
   53700    300.41819   -111666.27   -110828.99   -208.68057    207796.41  0.051300575 
   53800    306.26114   -111686.06   -110832.49     251.8067    207709.49  0.051322043 
   53900    298.23098   -111665.02   -110833.83   -42.758036    207634.79  0.051340508 
   54000    301.40832   -111676.42   -110836.38     414.1715    207556.07  0.051359979 
   54100    293.58452   -111656.62   -110838.38    47.112563    207482.81  0.051378113 
   54200    298.68369   -111673.15   -110840.71   -220.55775    207402.49   0.05139801 
   54300    295.65781   -111667.78   -110843.77    418.66266    207298.13  0.051423886 
   54400    297.68844   -111676.42   -110846.75   -16.707682    207228.93  0.051441058 
   54500    298.42516   -111681.01   -110849.28   -463.83492     207171.9  0.051455219 
   54600    296.25141   -111675.93   -110850.26   -267.10235    207105.06  0.051471826 
   54700    290.06915    -111658.2   -110849.76    33.730801    206982.95  0.051502192 
   54800    290.01115   -111654.24   -110845.96    184.59691    206853.21  0.051534493 
   54900    298.74419   -111669.58   -110836.97    537.62709    206787.88  0.051550773 
   55000    319.06781   -111714.25   -110824.99   -141.27821    206785.09   0.05155147 
   55100    303.59173   -111658.17   -110812.04   -42.157049    206778.66  0.051553073 
   55200    304.11277   -111650.36   -110802.78   -86.695595    206744.23  0.051561659 
   55300    307.39901    -111651.8   -110795.06    65.074109     206674.8   0.05157898 
   55400    303.46335   -111635.85   -110790.08    1.7374355    206599.26  0.051597839 
   55500    306.83669   -111640.43   -110785.26   -518.29814    206535.33  0.051613811 
   55600    310.76879   -111648.96   -110782.83    89.574382    206473.78  0.051629195 
   55700    306.77963   -111636.56   -110781.55    629.35377    206373.74  0.051654225 
   55800      308.805   -111643.77   -110783.11    353.15209    206249.11  0.051685437 
   55900     304.4172   -111637.48   -110789.05   -48.450446    206118.82  0.051718108 
   56000    297.97476   -111630.06   -110799.59   -392.11522     205995.6  0.051749044 
   56100    306.19543   -111668.47   -110815.08    55.791667    205867.55  0.051781232 
   56200    296.91372   -111659.82    -110832.3   -87.873675    205731.21  0.051815547 
   56300    298.63462   -111679.05   -110846.74   -249.81811    205569.88  0.051856213 
   56400    294.23415   -111677.18   -110857.13    216.20884    205381.87  0.051903681 
   56500    296.74252   -111689.08   -110862.05    197.20763    205204.39  0.051948574 
   56600    287.84761   -111665.75    -110863.5    346.48559    205035.85  0.051991275 
   56700    296.49716   -111688.59   -110862.24    365.65826    204889.19  0.052028491 
   56800    290.36741   -111669.05   -110859.78     195.9816    204781.18  0.052055933 
   56900    301.07105    -111694.5    -110855.4   -394.62139    204708.71  0.052074361 
   57000    306.76055   -111705.53   -110850.57   -33.643286    204646.79  0.052090117 
   57100    299.09962   -111679.22   -110845.62    272.40262    204583.49  0.052106236 
   57200    292.99419   -111655.89    -110839.3   -200.59939    204488.41  0.052130463 
   57300    299.34471    -111667.5   -110833.21   -44.382589    204405.71  0.052151553 
   57400    304.68949   -111674.33   -110825.14    24.107148     204360.6  0.052163065 
   57500    297.64711   -111646.31   -110816.75     75.97672       204340  0.052168323 
   57600    302.32093    -111651.6   -110809.02    153.77977    204334.56  0.052169713 
   57700    301.77997   -111640.73   -110799.65   -297.87266     204333.9  0.052169882 
   57800    316.41363   -111671.74   -110789.88    387.96068    204314.34  0.052174876 
   57900    315.39755   -111657.51   -110778.48   -218.81715    204299.51  0.052178663 
   58000     319.8646   -111657.43   -110765.95   -484.69477    204271.15  0.052185907 
   58100    314.71865   -111629.51   -110752.37    528.85277    204239.53  0.052193987 
   58200    323.75282   -111641.99   -110739.68   -235.85103    204215.72  0.052200071 
   58300    324.25897   -111635.94   -110732.21     74.56298    204200.39  0.052203992 
   58400    316.81339   -111615.07    -110732.1    115.16805    204195.95  0.052205125 
   58500    310.64151   -111603.36   -110737.58    13.109997    204213.08  0.052200748 
   58600    307.28371   -111608.38   -110751.97    24.189922    204254.47   0.05219017 
   58700    311.23859   -111637.87   -110770.43     249.6043    204300.11  0.052178511 
   58800    308.55921   -111648.82   -110788.85    259.67369    204322.41  0.052172814 
   58900    301.00864   -111640.57   -110801.64   -308.70582    204313.99  0.052174965 
   59000    305.01297   -111660.42   -110810.33   -233.74368    204278.77  0.052183961 
   59100    291.79146   -111631.49   -110818.25    184.41888    204235.69  0.052194969 
   59200    295.11288   -111645.81   -110823.31   -195.45256     204202.4  0.052203478 
   59300    294.77114   -111647.65   -110826.11     73.43829    204158.79  0.052214627 
   59400    303.41109   -111674.55   -110828.93    3.9786772    204083.25  0.052233955 
   59500    284.21721   -111623.07   -110830.94    143.98198    204015.72  0.052251246 
   59600    295.32633   -111654.78   -110831.69   -250.26903    203932.43  0.052272586 
   59700    312.79032   -111704.31   -110832.55   -48.070559    203827.38  0.052299525 
   59800    303.11173   -111678.73   -110833.94    36.350579    203722.01  0.052326577 
   59900    306.21774    -111689.1   -110835.65     -165.187    203636.48  0.052348554 
   60000    301.86689   -111679.64   -110838.32   -84.143705    203566.86  0.052366458 
   60100    298.19852   -111672.62   -110841.52    182.33921    203494.52  0.052385074 
   60200    290.13727   -111653.29   -110844.67    -31.92526    203441.41  0.052398748 
   60300    286.33432   -111644.91   -110846.88   -40.839978    203378.34  0.052414999 
   60400    303.59019   -111693.81   -110847.68   -187.79033    203284.56  0.052439177 
   60500    294.29558   -111668.56   -110848.34     74.80794     203179.3  0.052466344 
   60600    308.37065   -111708.93   -110849.48    241.48055    203085.67  0.052490533 
   60700     288.0836    -111652.7   -110849.79   -350.60689    203020.61  0.052507356 
   60800    295.10872   -111671.19   -110848.71    575.70575    202975.72  0.052518967 
   60900    298.06974   -111677.78   -110847.05   -575.03512    202973.68  0.052519496 
   61000    285.55551   -111638.48   -110842.62   -314.00384    202937.05  0.052528975 
   61100    296.60291   -111662.76   -110836.11   -46.899517    202864.64  0.052547724 
   61200    294.55956   -111647.88   -110826.92    239.07083    202776.92  0.052570458 
   61300    307.37071   -111672.91   -110816.25    504.08781    202692.44  0.052592369 
   61400    308.62791   -111666.85   -110806.69    41.465508    202632.53  0.052607917 
   61500    312.50214   -111670.93   -110799.97   -144.77689    202578.24  0.052622017 
   61600    303.37439   -111640.04   -110794.52    522.42805    202503.39  0.052641466 
   61700    306.42144   -111645.99   -110791.98    382.43032    202406.51  0.052666663 
   61800    305.36647   -111641.14   -110790.06    141.31812    202317.48  0.052689838 
   61900    309.27152   -111652.99   -110791.03    330.90523    202238.28  0.052710474 
   62000    295.98785   -111619.08   -110794.15   -77.913882    202149.46  0.052733634 
   62100    306.05809   -111655.13   -110802.13    68.755854    202059.21  0.052757186 
   62200    305.71378   -111667.17   -110815.13    274.61658    201969.37  0.052780655 
   62300    299.19272   -111665.59   -110831.73     42.70972    201928.88  0.052791236 
   62400    296.21602   -111673.31   -110847.74     307.2867       201910  0.052796173 
   62500    285.88274   -111656.39   -110859.62   -435.82662    201870.68  0.052806458 
   62600    294.71817   -111686.08   -110864.69   -299.19172    201780.39  0.052830085 
   62700    298.40661      -111698   -110866.32    172.15557    201676.27  0.052857361 
   62800    278.99126   -111642.73   -110865.16    33.163805    201626.14  0.052870502 
   62900    283.87243   -111652.41   -110861.24    3.0583395    201618.52  0.052872501 
   63000    290.12006   -111664.39   -110855.81   -120.35156    201618.28  0.052872564 
   63100     299.9311   -111684.13   -110848.21     5.379922    201631.58  0.052869077 
   63200    292.21215   -111653.43   -110839.02    27.920151    201637.52   0.05286752 
   63300    302.19076   -111671.91   -110829.69     393.1351    201630.82  0.052869274 
   63400     300.3766   -111658.94   -110821.77     175.5457    201622.96  0.052871336 
   63500    305.40977    -111666.8   -110815.61   -61.390427     201642.3  0.052866264 
   63600    309.39167   -111674.58   -110812.29   -242.55649    201670.41  0.052858898 
   63700     305.2515   -111661.83   -110811.08   -7.0982429     201707.1  0.052849282 
   63800     302.4248   -111654.49   -110811.61   -66.444182    201752.58  0.052837368 
   63900     305.1625   -111663.81   -110813.31    197.13427    201792.82  0.052826832 
   64000    305.57093   -111668.29   -110816.65    -66.95593    201796.04  0.052825988 
   64100    312.01211   -111689.71   -110820.12     64.86608    201737.37  0.052841353 
   64200    299.89904   -111660.34   -110824.51   -178.91561    201648.83  0.052864555 
   64300    310.48572   -111692.51   -110827.17   -185.52249    201504.37  0.052902453 
   64400     295.0817   -111652.88   -110830.47   -214.82774    201331.35  0.052947915 
   64500     302.8317   -111677.77   -110833.76    74.005303    201169.45  0.052990529 
   64600     305.7053   -111689.64   -110837.63   -79.559999    201077.65   0.05301472 
   64700    304.19306   -111690.25   -110842.45   -133.69812    201031.52  0.053026885 
   64800    301.97845   -111689.49   -110847.86   -12.202005    200967.24  0.053043846 
   64900    296.93729    -111681.9   -110854.32   -328.52302    200870.86  0.053069297 
   65000    303.29169   -111705.21   -110859.92   -93.202738    200767.95  0.053096499 
   65100    294.03642   -111688.01   -110868.52    64.158027     200673.7  0.053121437 
   65200    299.44407   -111715.58   -110881.01    23.547497    200611.06  0.053138025 
   65300    278.65619   -111673.97   -110897.34   -277.85918     200561.6  0.053151128 
   65400    281.18077    -111695.2   -110911.53    396.59873    200513.48  0.053163884 
   65500    290.49533   -111731.27   -110921.64   -12.821716     200484.5  0.053171569 
   65600    288.99481   -111733.08   -110927.63    26.272696    200468.11  0.053175917 
   65700    280.60266   -111711.62   -110929.56   -701.49703    200422.65  0.053187978 
   65800    288.36039   -111729.34   -110925.67     142.6193    200336.03  0.053210973 
   65900    289.41786   -111722.39   -110915.77    189.64189    200259.54  0.053231299 
   66000    299.98099   -111737.15   -110901.08   -284.14888    200212.03   0.05324393 
   66100    282.60101    -111672.5   -110884.88   -310.00536    200186.04  0.053250844 
   66200    301.79343   -111712.79   -110871.67   -181.42633    200149.22   0.05326064 
   66300    299.13008   -111695.66   -110861.97   -108.85783    200135.49  0.053264294 
   66400    296.70021   -111682.41   -110855.49    367.39531       200163  0.053256972 
   66500    290.40807   -111658.47   -110849.09   -441.02279    200227.07  0.053239931 
   66600    309.94917   -111709.04   -110845.19    18.526608    200262.69  0.053230462 
   66700    302.56388   -111684.92   -110841.65    -9.605024    200275.95  0.053226938 
   66800    300.91861   -111678.17   -110839.49     192.2724    200242.55  0.053235815 
   66900    300.73526   -111675.63   -110837.46   -181.37407    200205.09  0.053245775 
   67000     294.3524   -111654.63   -110834.25    233.88403    200172.33  0.053254491 
   67100    293.25057    -111647.6   -110830.29     220.5037    200133.49  0.053264826 
   67200      307.398   -111679.76   -110823.03     288.0837    200058.19  0.053284874 
   67300    305.96875   -111668.01   -110815.26   -572.66521    199960.04  0.053311028 
   67400    301.93146   -111650.15   -110808.65   -281.98744    199870.07  0.053335025 
   67500    307.41923   -111658.77   -110801.97    52.842912    199809.54  0.053351182 
   67600    314.60353   -111673.07   -110796.25      56.4993    199769.73  0.053361815 
   67700     307.1368   -111647.17   -110791.16    188.86664    199729.93  0.053372447 
   67800    307.90286   -111646.66   -110788.52   -179.52443    199707.05  0.053378564 
   67900    312.42043   -111658.36   -110787.63    377.92457    199716.84  0.053375946 
   68000    302.55751   -111635.01   -110791.76    339.42611    199750.48  0.053366957 
   68100    306.07718   -111654.73   -110801.67    76.990792    199780.43  0.053358958 
   68200    303.52732   -111662.69   -110816.74   -27.117234    199824.06  0.053347306 
   68300    299.48785    -111669.8   -110835.11   -76.439374    199900.54  0.053326896 
   68400    288.41808   -111655.26   -110851.42   -313.76693    199989.76  0.053303106 
   68500     292.5586    -111676.1   -110860.73    87.107563    200052.41  0.053286414 
   68600    288.83863   -111672.94   -110867.93   -253.31892    200079.73  0.053279138 
   68700    284.76629   -111664.49   -110870.83   -124.97466    200063.62  0.053283426 
   68800     286.9407   -111670.65   -110870.93   -47.092035    200054.76  0.053285786 
   68900    288.93136    -111674.3   -110869.03    729.67018    200037.72  0.053290327 
   69000    297.24951   -111690.92   -110862.47    695.28643    199995.07   0.05330169 
   69100    297.22023   -111682.33   -110853.96   -275.97381    199915.55  0.053322892 
   69200    301.89759   -111685.68   -110844.27      124.455    199828.96  0.053345998 
   69300    290.44068   -111643.84   -110834.36   -347.76064    199750.69  0.053366901 
   69400    295.67436   -111647.32   -110823.26    103.26504    199649.77  0.053393879 
   69500    311.24878    -111681.6   -110814.13     176.4277     199540.2  0.053423197 
   69600    308.97629   -111668.85   -110807.72    82.621563    199418.04  0.053455923 
   69700    301.98947   -111647.67   -110806.01    599.20585    199296.41  0.053488546 
   69800    304.38652   -111654.92   -110806.58    658.66605    199174.83  0.053521197 
   69900    300.24721   -111645.77   -110808.96   -233.76785    199065.21   0.05355067 
   70000    304.67546    -111660.7   -110811.56    -229.8065    198958.56  0.053579376 
   70100    313.33326   -111687.79   -110814.51    458.73487    198847.45  0.053609314 
   70200    297.93995   -111648.57   -110818.19   -35.640974    198780.19  0.053627454 
   70300    297.04512   -111649.91   -110822.03   -351.62959    198752.62  0.053634892 
   70400    296.69227    -111651.4    -110824.5   -288.00465     198738.8  0.053638622 
   70500    303.43093   -111672.25   -110826.57    237.16222    198717.53  0.053644363 
   70600    295.65403   -111651.12   -110827.12   -160.01597    198733.39  0.053640083 
   70700    294.76847   -111651.12   -110829.58   -391.81159    198755.31  0.053634167 
   70800    298.83067   -111664.13   -110831.28    134.06184    198742.93  0.053637508 
   70900    293.74746   -111651.67   -110832.98    -312.3083    198703.73   0.05364809 
   71000    302.56869    -111676.7   -110833.43   -90.744702    198619.44  0.053670855 
   71100    302.15594   -111676.74   -110834.62     604.3848    198486.35  0.053706844 
   71200    302.38426   -111678.65   -110835.89    -77.04045    198363.75  0.053740038 
   71300    302.19273   -111678.39   -110836.16     18.01415    198241.61  0.053773148 
   71400    288.68453   -111641.71   -110837.13    -268.2195    198123.85  0.053805108 
   71500    306.74657   -111692.58   -110837.66    158.07343    197986.36  0.053842475 
   71600    305.55302   -111687.44   -110835.85   -148.99269    197846.43  0.053880554 
   71700    300.73415   -111671.48   -110833.32    221.86486    197718.12  0.053915521 
   71800    310.19161   -111690.95   -110826.43   -47.580987    197588.94  0.053950769 
   71900    305.40912   -111666.76   -110815.57    108.51447     197461.1  0.053985697 
   72000    305.15428   -111652.39   -110801.91    371.94072    197301.82  0.054029281 
   72100     310.5498   -111655.08   -110789.56   -336.22584    197130.15  0.054076332 
   72200    313.64714   -111654.83   -110780.67    358.00634    196944.12   0.05412741 
   72300    314.79351   -111651.47   -110774.13   -56.757363    196774.48  0.054174074 
   72400      304.108   -111619.62   -110772.06    157.32488    196635.39  0.054212394 
   72500    316.15682   -111653.56   -110772.41    2.9724295    196548.35  0.054236403 
   72600    308.87255   -111638.38   -110777.53    -4.802268    196499.05  0.054250011 
   72700    306.63615   -111640.95   -110786.34   -95.395104    196494.19  0.054251352 
   72800    303.55556   -111644.42   -110798.39   -324.47096    196512.32  0.054246347 
   72900    295.30181   -111634.39   -110811.36   -6.3340178    196519.22  0.054244442 
   73000    300.59781   -111660.63   -110822.85    -131.1957    196524.03  0.054243115 
   73100    306.75008    -111687.5   -110832.57    255.54797     196530.9  0.054241217 
   73200    299.82717   -111675.01   -110839.38     156.7735    196553.66  0.054234936 
   73300    298.53336   -111675.88   -110843.85   -300.81488    196559.69  0.054233274 
   73400    300.22846   -111683.27   -110846.51    86.803558    196537.21  0.054239475 
   73500    300.88916   -111686.61   -110848.02    1.9454084    196520.83  0.054243998 
   73600    297.64673   -111678.75   -110849.19   -124.70192    196524.72  0.054242923 
   73700    302.86847   -111694.27   -110850.16    42.117442    196515.35  0.054245511 
   73800    302.86238   -111695.33   -110851.24    28.513371    196502.78   0.05424898 
   73900    306.49997   -111705.58   -110851.35    153.32361    196456.25  0.054261827 
   74000    304.49435   -111699.82   -110851.17   -91.436636    196418.09  0.054272372 
   74100    300.22935   -111687.28   -110850.52    552.60577    196374.47  0.054284425 
   74200     298.1982   -111681.23   -110850.13   -54.838348    196323.24   0.05429859 
   74300    298.77935   -111682.72      -110850   -157.30469    196254.29  0.054317668 
   74400    292.34253   -111663.66   -110848.88   -517.75766    196193.42  0.054334521 
   74500    296.22853    -111669.9   -110844.29    301.66564     196187.8  0.054336078 
   74600    286.20759   -111636.51   -110838.84   -251.38713    196221.99  0.054326609 
   74700    302.83565   -111674.96   -110830.94   -66.537782    196206.43  0.054330918 
   74800     298.9388   -111655.66    -110822.5    113.59517       196119  0.054355138 
   74900    313.31618   -111688.34   -110815.11     112.2666    195993.97  0.054389813 
   75000     314.0242    -111683.5    -110808.3     248.0786    195872.61  0.054423511 
   75100    310.98723   -111671.12   -110804.38    595.45848    195773.52  0.054451059 
   75200    295.02225   -111623.81   -110801.57    60.328419    195681.54  0.054476654 
   75300    309.74947   -111662.21   -110798.92    543.24996    195569.22  0.054507939 
   75400    307.27148   -111652.02   -110795.63   -119.67199    195471.19  0.054535276 
   75500    305.29436   -111645.49   -110794.62    267.57278    195384.15   0.05455957 
   75600    302.80947   -111639.71   -110795.76    108.88536     195316.2  0.054578551 
   75700    303.06841   -111644.51   -110799.84   -509.61029    195257.26  0.054595028 
   75800    305.20102   -111658.06   -110807.45    622.34463    195213.37  0.054607301 
   75900     303.8043   -111666.65   -110819.93   -500.68493    195154.41  0.054623799 
   76000    294.74169   -111655.55   -110834.08   -128.46588    195079.78  0.054644696 
   76100    297.37901   -111675.54   -110846.73   -166.30968     195011.3  0.054663885 
   76200    292.21019    -111672.8   -110858.39    259.19289    194944.74   0.05468255 
   76300    302.50957   -111709.49   -110866.38   -110.22615    194896.89  0.054695976 
   76400    289.67426   -111679.62   -110872.28   -478.02975    194846.89  0.054710009 
   76500    303.23164    -111719.1   -110873.98   -26.307791    194774.21  0.054730424 
   76600    289.47886    -111680.8      -110874    498.22192    194706.33  0.054749507 
   76700    289.86036   -111678.14   -110870.28   -342.85703    194649.62  0.054765456 
   76800    290.42719   -111673.61   -110864.17   -17.395257    194595.08  0.054780806 
   76900    305.17084   -111705.98   -110855.45   -149.94916    194528.32  0.054799607 
   77000    293.00295    -111663.7   -110847.08   -322.64417    194442.56  0.054823776 
   77100    298.08488   -111669.64   -110838.86    259.21298    194360.23  0.054846998 
   77200    297.09585   -111660.23   -110832.21    -4.942868    194314.71  0.054859849 
   77300    313.67218   -111701.31   -110827.08    678.07341    194285.04  0.054868227 
   77400    300.85267   -111662.98   -110824.48    -468.4451    194285.13    0.0548682 
   77500    305.11635   -111674.66   -110824.28       621.02    194299.07  0.054864265 
   77600     308.9692   -111686.46   -110825.35   -234.06537    194298.85  0.054864327 
   77700    304.78324   -111677.65    -110828.2    199.36121    194285.11  0.054868207 
   77800    308.93786   -111692.42   -110831.39   -465.09822    194284.82  0.054868287 
   77900     301.0387   -111676.23   -110837.22    314.91491       194302  0.054863435 
   78000    296.47176   -111667.33   -110841.05    60.075754    194332.01  0.054854965 
   78100    291.12874   -111655.44   -110844.05   -402.20013    194386.24   0.05483966 
   78200    297.76962    -111675.2    -110845.3   -170.22137    194451.38  0.054821289 
   78300    302.54454    -111688.8   -110845.59   -194.28275    194494.82  0.054809046 
   78400    297.59362   -111674.45   -110845.04   -233.57264    194500.24  0.054807517 
   78500    287.57305    -111645.4   -110843.92    505.18292    194502.98  0.054806745 
   78600    292.56298   -111657.29    -110841.9   -258.55008    194514.93  0.054803379 
   78700    308.46815   -111699.16   -110839.44   -302.28796    194520.28  0.054801871 
   78800     299.9194    -111671.9   -110836.01    116.79802    194505.52  0.054806031 
   78900    300.51101   -111669.17   -110831.63   -528.90414    194484.52  0.054811947 
   79000    303.30349   -111672.47   -110827.15   -231.40953    194436.62  0.054825451 
   79100    302.84625   -111666.41   -110822.36    129.73259    194340.85  0.054852469 
   79200    307.90027   -111676.69   -110818.56    142.64123    194229.31  0.054883968 
   79300    306.02518   -111668.97   -110816.06    38.499258    194123.22  0.054913962 
   79400    297.91541   -111645.17   -110814.87    208.45376    194011.84   0.05494549 
   79500    305.75056   -111665.79   -110813.65   -302.37013    193870.65  0.054985504 
   79600    309.76938   -111676.66   -110813.31   -406.90927    193708.19  0.055031619 
   79700    310.01273   -111679.16   -110815.14    203.29447    193545.02  0.055078013 
   79800    305.85379    -111670.2   -110817.77   -317.77548    193404.05   0.05511816 
   79900     290.1729   -111632.53    -110823.8   -2.2841519    193268.68  0.055156767 
   80000    304.35341   -111681.18   -110832.93   -26.074465    193117.02  0.055200081 
   80100    298.27173   -111674.71   -110843.41   -39.651469    192969.22  0.055242362 
   80200    301.72926   -111695.18   -110854.25    578.15929    192854.48  0.055275228 
   80300    301.92865   -111705.65   -110864.16    -69.26572    192791.78  0.055293206 
   80400    297.74913    -111701.7   -110871.85    -40.86731    192753.35   0.05530423 
   80500    291.35466   -111690.17   -110878.15     166.2394    192721.15  0.055313469 
   80600    280.62957   -111665.39   -110883.26   -5.7095034    192680.02  0.055325276 
   80700    292.64091   -111702.46   -110886.85    227.52859    192608.47  0.055345827 
   80800    293.46993   -111706.27   -110888.35   -206.07425    192512.04   0.05537355 
   80900    290.85676   -111697.04    -110886.4    287.17699    192390.47  0.055408542 
   81000    284.26018   -111673.13   -110880.88    89.310753    192270.47  0.055443123 
   81100    304.07316   -111715.12   -110867.65    334.17934    192139.29  0.055480977 
   81200    302.46589   -111690.49    -110847.5    629.57578    192017.04  0.055516298 
   81300    312.47456   -111698.75   -110827.87   -27.836151    191908.29  0.055547757 
   81400    312.32601   -111684.21   -110813.74   -120.74358    191767.63  0.055588502 
   81500    310.09969   -111672.64   -110808.37    225.29645    191615.31   0.05563269 
   81600    325.20234   -111714.01   -110807.65    265.56993    191473.44  0.055673912 
   81700    307.90906   -111668.97   -110810.81    -110.2117    191347.87  0.055710448 
   81800    311.71475   -111685.56   -110816.79    503.32054     191263.5  0.055735021 
   81900    312.25299   -111693.79   -110823.53    180.51046    191223.71   0.05574662 
   82000    302.29961   -111673.23   -110830.71   -117.96976    191208.23  0.055751133 
   82100     299.7316   -111673.15   -110837.78    352.84256    191208.84  0.055750956 
   82200    285.12734   -111639.46   -110844.79   -48.705726    191215.21  0.055749099 
   82300    294.60566   -111671.21   -110850.12   -471.31985    191228.94  0.055745094 
   82400    290.40652   -111662.43   -110853.05   -68.177907    191221.14  0.055747368 
   82500    291.53874   -111667.87   -110855.33    243.83269    191187.58  0.055757155 
   82600    297.81729   -111687.25   -110857.22    255.37081    191152.71  0.055767325 
   82700    298.82931   -111692.26    -110859.4    117.96801    191120.99   0.05577658 
   82800    301.19379   -111700.28   -110860.84    -323.7536    191088.92  0.055785942 
   82900    301.24497   -111698.77   -110859.18   -206.54896    191034.24  0.055801909 
   83000    291.66621   -111666.03   -110853.14   -23.850421    190959.36  0.055823791 
   83100    301.53878   -111682.94   -110842.53   -80.060878    190871.84  0.055849388 
   83200    299.99879   -111662.76   -110826.65   -662.48952    190751.92  0.055884498 
   83300    311.19535   -111677.35   -110810.03    16.950522    190590.51  0.055931828 
   83400    308.88626   -111659.73   -110798.84   -220.30929    190458.67  0.055970545 
   83500    309.05836   -111652.64   -110791.27    344.72878    190365.34  0.055997983 
   83600    305.25152   -111638.83   -110788.08    67.255187    190299.48  0.056017364 
   83700    305.09595   -111639.17   -110788.85   -11.887751    190198.18  0.056047201 
   83800    315.56526   -111673.71   -110794.21   -17.995754    190062.28  0.056087276 
   83900    308.60307   -111664.18   -110804.09    615.05647    189935.36  0.056124755 
   84000     310.2788   -111680.91   -110816.15    605.74485    189847.48  0.056150734 
   84100    294.44942    -111649.1   -110828.46    153.59137    189769.43  0.056173828 
   84200    305.24173   -111687.87   -110837.14    175.87855    189654.54  0.056207858 
   84300    289.22202   -111652.52   -110846.44   -225.19675    189524.28  0.056246491 
   84400      287.556   -111653.88   -110852.44   -132.49527    189371.72  0.056291803 
   84500    298.44525   -111686.75   -110854.96   -423.38931    189209.59  0.056340038 
   84600    290.60411   -111665.81   -110855.88    105.76073    189023.83  0.056395406 
   84700     300.5711   -111692.33   -110854.62   -439.78139    188847.27  0.056448131 
   84800    295.13946   -111674.15   -110851.58    479.11475    188673.39  0.056500153 
   84900    297.05589   -111677.14   -110849.23   -270.85103    188532.51  0.056542374 
   85000    300.44219   -111684.57   -110847.22   -119.81976    188389.39  0.056585327 
   85100    292.22484   -111660.37   -110845.93    215.76545    188221.19  0.056635893 
   85200    299.38976   -111679.04   -110844.63   -490.87453    188035.63  0.056691785 
   85300    304.79998   -111692.29   -110842.79   -264.36227    187825.97  0.056755066 
   85400    301.13515   -111679.93   -110840.64    718.59388    187608.29  0.056820919 
   85500    308.55625   -111697.98   -110838.02   -84.882143    187393.76  0.056885969 
   85600    309.93672   -111699.87   -110836.06    393.73269    187189.19  0.056948137 
   85700     299.9864   -111670.24   -110834.16   -252.76399    187011.71  0.057002181 
   85800    294.28396   -111651.42   -110831.23   -275.85437    186835.41  0.057055969 
   85900    298.55548    -111655.6   -110823.51   -175.50826    186636.88   0.05711666 
   86000    305.93733   -111662.09   -110809.42   -233.62045    186408.05  0.057186777 
   86100    310.93585   -111660.62   -110794.02   -154.48775    186143.58  0.057268026 
   86200    309.79759   -111644.02    -110780.6     245.7719    185887.37   0.05734696 
   86300    315.87668   -111651.64   -110771.27    90.489997    185657.54  0.057417949 
   86400    310.40357   -111629.95   -110764.83   -151.79056    185429.94  0.057488426 
   86500    319.66779   -111654.53   -110763.59    162.12507    185171.74  0.057568587 
   86600    307.93024   -111625.93   -110767.72   -267.77658    184881.95  0.057658822 
   86700    303.31452   -111622.56    -110777.2   -66.117959    184572.67  0.057755439 
   86800    300.39572   -111629.65   -110792.43   -210.10153    184265.85  0.057851605 
   86900    301.09649   -111646.83   -110807.66      102.517    183941.24    0.0579537 
   87000     298.9439   -111653.62   -110820.45   -17.602459    183613.29  0.058057212 
   87100    298.56085   -111661.82   -110829.71    311.96292    183286.49  0.058160728 
   87200    300.05134   -111673.63   -110837.37   -594.89003    182970.98  0.058261016 
   87300    299.43029   -111676.62   -110842.09    39.232474     182652.6   0.05836257 
   87400     295.6899   -111671.16   -110847.05   -222.53079    182341.74  0.058462067 
   87500    303.87989   -111698.45   -110851.52   -143.87749    182033.65  0.058561014 
   87600    289.65631   -111661.58   -110854.29   -123.99514    181729.45   0.05865904 
   87700    304.70012   -111705.35   -110856.14    737.73936    181451.84  0.058748785 
   87800    288.70337   -111662.48   -110857.85   -436.33789     181198.2  0.058831023 
   87900    282.43707    -111646.7   -110859.53    297.84261     180936.7  0.058916048 
   88000    298.27448   -111692.43   -110861.12   -154.56341    180670.15   0.05900297 
   88100    296.42852   -111689.57    -110863.4   -99.673723    180392.56  0.059093763 
   88200    295.14453   -111688.58   -110865.99    233.64342    180126.28  0.059181121 
   88300    300.82245   -111706.86   -110868.45   -435.47454    179858.83  0.059269124 
   88400    296.14422   -111695.68   -110870.31   -314.02001    179560.54  0.059367584 
   88500    295.61398    -111693.3   -110869.41    456.51298     179234.7  0.059475512 
   88600    290.43143   -111675.14   -110865.69    192.24552     178916.5  0.059581286 
   88700    300.39199   -111697.33   -110860.12    112.77048    178601.71  0.059686301 
[...]
  978700    314.63325   -111844.67   -110967.77   -8694.1926    9076.2264    1.1745052 
  978800    294.71064   -111789.75   -110968.38   -1035.9272    9078.7545    1.1741782 
  978900    305.34553   -111818.46   -110967.44    3173.8285    9082.1175    1.1737434 
  979000    300.47295   -111806.05   -110968.61    9560.8529     9086.766    1.1731429 
  979100    297.23841   -111799.55   -110971.13    6730.8622    9093.2421    1.1723074 
  979200    298.23439   -111805.99   -110974.79    8057.6278    9098.7521    1.1715975 
  979300    300.76284      -111817   -110978.75   -5215.8857    9103.3562     1.171005 
  979400    301.77618   -111824.46    -110983.4    3178.4046    9107.6205    1.1704567 
  979500     303.0788   -111831.27   -110986.58    3578.4914     9113.383    1.1697166 
  979600    295.78442   -111815.91   -110991.54   -1686.7501    9120.3162    1.1688274 
  979700    299.53628    -111831.3   -110996.48    9454.5273    9126.2712    1.1680647 
  979800    288.95983   -111805.79   -111000.44    1861.8477    9131.1002     1.167447 
  979900    297.71543   -111832.98   -111003.23   -79.566388    9135.5435    1.1668792 
  980000    300.41266   -111841.84   -111004.57    8516.6784    9141.5522    1.1661122 
  980100    298.44698   -111836.61   -111004.82    10861.091    9148.7044    1.1652005 
  980200    295.89115      -111827   -111002.33     8660.723    9155.3435    1.1643556 
  980300    301.58192   -111839.16   -110998.63   -6298.0823    9161.5374    1.1635684 
  980400    290.90078   -111803.67   -110992.91    -7344.119    9167.1754    1.1628528 
  980500    292.61356   -111799.47   -110983.94    1965.9175    9173.1997    1.1620891 
  980600    292.53187   -111787.12   -110971.81   -10575.445    9180.5933    1.1611532 
  980700     290.4976   -111766.41   -110956.78    41.505756    9187.7717     1.160246 
  980800    300.86288   -111780.51   -110941.99   -5716.2364    9194.5023    1.1593967 
  980900    314.54356   -111808.64   -110931.99   -4313.1108    9200.8051    1.1586025 
  981000    312.70635   -111798.35   -110926.82    2069.5877    9207.6873    1.1577365 
  981100    305.07212   -111776.17   -110925.92   -7233.0025    9214.1035    1.1569303 
  981200    309.96063   -111789.48    -110925.6    7441.0455    9220.5987    1.1561153 
  981300     304.7692   -111776.68   -110927.27    7180.9129    9228.7249    1.1550973 
  981400    314.32289   -111807.22   -110931.19    3149.6152     9237.066    1.1540543 
  981500     313.0169   -111808.22   -110935.82   -1989.2174    9244.4941     1.153127 
  981600    301.54021   -111782.05   -110941.64     9345.053    9250.9908    1.1523171 
  981700    302.53057   -111794.48   -110951.31    3047.8606    9258.8221    1.1513425 
  981800    295.67462   -111787.56   -110963.49    636.78939    9268.1922    1.1501785 
  981900    292.20601   -111791.94   -110977.54    3822.6375    9277.8687    1.1489789 
  982000    296.16061    -111817.1   -110991.68   -12009.308    9286.9761    1.1478521 
  982100    281.34283   -111785.63   -111001.51   -3440.7259    9292.3899    1.1471834 
  982200    288.92593   -111811.69   -111006.44    -7174.036    9294.8481      1.14688 
  982300     291.9224   -111820.94   -111007.33    -3082.658    9295.9225    1.1467474 
  982400    295.29064   -111829.68   -111006.69   -1617.8155    9296.4455    1.1466829 
  982500    291.24376   -111815.51    -111003.8   -12898.607    9296.0418    1.1467327 
  982600    292.72532   -111816.14    -111000.3   -1243.5699    9295.2169    1.1468345 
  982700    303.00675   -111840.91   -110996.42    8334.3725     9294.589     1.146912 
  982800    293.05104   -111810.63   -110993.88    8251.7116    9293.5887    1.1470354 
  982900    289.03508   -111796.67   -110991.11   -1566.0104    9291.5663    1.1472851 
  983000    303.79149    -111834.6   -110987.91    5450.6507     9288.108    1.1477123 
  983100    292.91305   -111800.54   -110984.17    -5765.269    9283.7531    1.1482506 
  983200    286.47558   -111777.41   -110978.99   -4441.5271    9279.7636    1.1487443 
  983300    296.87629   -111800.03   -110972.62   -1667.5474    9276.9449    1.1490933 
  983400    303.78365   -111814.34   -110967.67     10466.14    9273.6864    1.1494971 
  983500    303.47546   -111808.76   -110962.96   -7038.6871    9268.9811    1.1500806 
  983600    309.64175    -111822.4   -110959.41   -864.50736    9261.5277    1.1510062 
  983700    298.61758   -111788.56    -110956.3    4357.7169    9253.3641    1.1520216 
  983800     302.6442   -111797.15   -110953.66    10325.916    9244.7616    1.1530936 
  983900    306.89314   -111804.06   -110948.73    5533.6443    9237.8395    1.1539576 
  984000    305.20737   -111792.08   -110941.45     1845.029    9231.3708    1.1547662 
  984100    305.99064   -111784.41    -110931.6    1567.1032    9223.4959    1.1557522 
  984200    305.15318   -111769.11   -110918.63    2834.3586    9214.8111    1.1568414 
  984300    307.08298   -111761.27   -110905.42   -441.82893    9205.9988    1.1579488 
  984400    310.15761    -111760.2   -110895.77    13139.079    9197.3615    1.1590362 
  984500    310.79171   -111757.19      -110891    10001.717    9188.2421    1.1601866 
  984600    310.77792   -111758.04   -110891.89    -3992.472    9181.0211    1.1610991 
  984700    315.07661   -111775.07   -110896.93    7139.9345    9176.1041    1.1617213 
  984800    307.52138   -111764.89   -110907.81    9443.2631    9173.4045    1.1620631 
  984900    310.50812   -111789.71    -110924.3   -5753.0921    9171.5042    1.1623039 
  985000    306.53448   -111795.18   -110940.85     3485.722     9171.233    1.1623383 
  985100    309.51026    -111817.5   -110954.87   -4193.9553    9172.4437    1.1621849 
  985200    313.53528   -111838.67   -110964.83    5331.1377    9173.6059    1.1620376 
  985300    300.98638   -111811.26   -110972.39    4272.3864    9173.5492    1.1620448 
  985400    295.14912   -111798.95   -110976.35    -1401.935    9173.6016    1.1620382 
  985500    296.21268   -111804.75   -110979.19    1574.6538    9173.4232    1.1620608 
  985600    309.98029   -111845.37   -110981.43    2062.5785    9174.0688     1.161979 
  985700    307.89539   -111839.52    -110981.4   -1377.4323    9176.6373    1.1616538 
  985800    292.27624   -111795.89    -110981.3   -4194.7401    9182.0841    1.1609647 
  985900    300.25839   -111818.34    -110981.5    8297.8676     9188.437     1.160162 
  986000     301.0818   -111820.66   -110981.53   -9021.1032    9194.8499    1.1593528 
  986100    295.12196   -111804.24   -110981.72    6073.1933     9200.287    1.1586677 
  986200    304.75122   -111830.79   -110981.43   -13963.147    9206.3045    1.1579104 
  986300    298.22449   -111811.01   -110979.84   -1441.1845    9212.0225    1.1571916 
  986400    296.13331   -111800.62   -110975.28    2171.1045    9218.2412     1.156411 
  986500    300.42292    -111807.7    -110970.4   -8712.1836     9225.307    1.1555253 
  986600    306.23494   -111817.81   -110964.32    2494.8079    9233.4348    1.1545081 
  986700    309.11848   -111816.32   -110954.79    14144.696    9242.1735    1.1534165 
  986800    297.08053   -111773.45   -110945.47   -354.02897    9252.5512    1.1521228 
  986900    296.16563   -111762.95   -110937.52    12511.026     9262.914    1.1508339 
  987000    302.79119   -111772.54   -110928.65    2504.2955    9273.1059     1.149569 
  987100    309.91212   -111785.11   -110921.37    812.04464    9282.1871    1.1484444 
  987200    312.21271   -111786.17   -110916.02   -7540.5983    9290.0299    1.1474748 
  987300    315.74515   -111793.94   -110913.94     2721.407    9296.3264    1.1466976 
  987400    313.83307   -111791.27    -110916.6    4660.5815    9302.3502    1.1459551 
  987500    304.23425   -111770.79   -110922.87   -7643.9272    9309.9361    1.1450213 
  987600    301.78182   -111773.85   -110932.76    4900.1128    9316.5222    1.1442119 
  987700     306.6496   -111801.55    -110946.9    271.69894    9320.3926    1.1437367 
  987800    310.90537   -111831.11    -110964.6    1901.5369    9323.0145    1.1434151 
  987900    290.38085   -111789.88   -110980.57    575.31896     9325.315     1.143133 
  988000    290.02901   -111798.47   -110990.15    586.30183    9326.9345    1.1429345 
  988100    287.44108   -111796.33   -110995.21    631.02937    9327.7008    1.1428406 
  988200    299.70668   -111830.76   -110995.46   -5878.3576    9328.6599    1.1427231 
  988300    299.47084   -111829.69   -110995.05   -1762.0812    9328.8209    1.1427034 
  988400    298.76959   -111826.63   -110993.94    6134.7992    9328.2773      1.14277 
  988500    295.16925   -111815.02   -110992.37    4053.4418    9327.0332    1.1429224 
  988600    293.29299   -111805.94   -110988.51   -2544.8629    9325.2951    1.1431354 
  988700       294.33   -111803.84   -110983.53    11093.797     9323.122    1.1434019 
  988800    300.87613      -111814   -110975.45   -2827.4446    9321.7111     1.143575 
  988900    309.60735   -111829.92   -110967.03    9599.0325    9319.4166    1.1438565 
  989000    302.03503      -111799   -110957.21    2772.6838     9317.117    1.1441388 
  989100    296.26975   -111773.38   -110947.66    2692.0164    9314.9372    1.1444066 
  989200    304.46144   -111787.93   -110939.38   -8339.5162    9313.3159    1.1446058 
  989300     313.5127   -111806.15   -110932.37   -3325.3098    9310.7469    1.1449216 
  989400    304.49606   -111776.56   -110927.91   -7359.7218    9305.8646    1.1455223 
  989500    306.11581   -111779.31   -110926.15    3400.5653    9299.5912    1.1462951 
  989600    301.45017    -111766.1   -110925.94    10443.354    9294.4743    1.1469261 
  989700    305.31252   -111779.92   -110928.99    2469.0038     9290.554    1.1474101 
  989800     312.5427    -111808.6   -110937.53   -1487.4581    9287.3569    1.1478051 
  989900    301.64391   -111800.45   -110959.75     460.4353    9283.5428    1.1482766 
  990000    295.74478   -111813.13   -110988.87   -5773.0013    9279.5344    1.1487727 
  990100    278.66718   -111783.87   -111007.21   -5579.4133    9275.3582    1.1492899 
  990200    287.19424   -111815.58   -111015.15   -3739.3725     9271.255    1.1497985 
  990300    286.49962   -111816.25   -111017.76    6004.6759    9267.8924    1.1502157 
  990400    299.00297   -111850.17   -111016.83   -1749.3859    9264.4863    1.1506386 
  990500    298.72538   -111846.03   -111013.47    5792.2832    9260.0955    1.1511842 
  990600    289.57261   -111815.39   -111008.33    4138.3015    9255.9526    1.1516994 
  990700    304.57825   -111848.96   -111000.08    1159.0039    9252.0562    1.1521845 
  990800    300.39878   -111827.74   -110990.51    712.63463     9247.662    1.1527319 
  990900    296.37145   -111806.95   -110980.94    3727.2063    9242.6093    1.1533621 
  991000    317.81989   -111856.46   -110970.68    13264.996    9238.3146    1.1538983 
  991100    297.60286    -111793.5   -110964.07    3011.9627    9234.4465    1.1543816 
  991200    304.98184   -111807.52   -110957.51   -6727.2229    9230.9005    1.1548251 
  991300    294.03923   -111770.79   -110951.28    4761.2273    9225.8445    1.1554579 
  991400    300.41922   -111782.78   -110945.49   -2189.5275    9219.4093    1.1562645 
  991500    298.27865   -111772.77   -110941.45    1710.3826    9213.6172    1.1569913 
  991600    307.54536   -111795.46   -110938.31   -2776.3945    9209.5756    1.1574991 
  991700    305.84662   -111788.91    -110936.5   -5145.9696    9206.0115    1.1579472 
  991800    302.57949   -111779.99   -110936.68    14363.044    9202.3248    1.1584111 
  991900    296.63427   -111766.22   -110939.48    1132.6244    9198.5556    1.1588858 
  992000    305.58317   -111795.44   -110943.76   -6434.9071    9194.7659    1.1593634 
  992100     304.6017   -111801.29   -110952.34    3438.9775    9190.2466    1.1599335 
  992200    297.18069    -111793.5   -110965.24    5085.2046    9186.4175     1.160417 
  992300    297.34164   -111809.22   -110980.51    8864.7708    9184.4166    1.1606698 
  992400    300.95332   -111834.05   -110995.27    922.61129    9184.7591    1.1606266 
  992500     299.4123   -111842.05   -111007.57    2159.4411      9186.35    1.1604256 
  992600    292.93313   -111831.53   -111015.11    8766.9774     9187.311    1.1603042 
  992700    286.18223    -111817.7    -111020.1   -5401.2634    9188.5128    1.1601524 
  992800    290.42763   -111831.89   -111022.45   -2086.8579    9190.5416    1.1598963 
  992900    300.74012   -111859.61   -111021.43    7982.5751     9192.551    1.1596428 
  993000    295.79558   -111841.19   -111016.79     2023.886    9193.8186    1.1594829 
  993100    285.52244    -111804.4   -111008.64   -603.90328    9195.6213    1.1592556 
  993200    293.86994   -111817.01   -110997.98    4704.7817    9197.1522    1.1590626 
  993300    300.41677   -111825.45   -110988.17    7725.8676     9200.745      1.15861 
  993400    302.40493   -111819.19   -110976.37    7114.5879    9205.5766    1.1580019 
  993500    294.95522   -111789.79   -110967.73   -8106.4986    9210.4736    1.1573862 
  993600    287.89053   -111762.45   -110960.08   -4887.3105     9214.172    1.1569217 
  993700    294.49902   -111775.65   -110954.86    4987.3288    9216.8281    1.1565883 
  993800    305.72253   -111802.95   -110950.88    876.04543    9218.6363    1.1563614 
  993900    307.53491   -111805.17   -110948.05   -8108.8525    9219.2429    1.1562853 
  994000    297.71657    -111777.5   -110947.75    173.71643    9217.8187     1.156464 
  994100    298.43281   -111779.73   -110947.98    -5938.118    9216.2185    1.1566648 
  994200    292.67229    -111764.9    -110949.2    -2857.424    9214.0422     1.156938 
  994300    300.49036   -111786.41   -110948.92    3023.5811    9210.7582    1.1573505 
  994400    309.90713   -111812.61   -110948.88    6479.6859    9208.6036    1.1576213 
  994500    306.35241   -111803.32    -110949.5    2189.7062    9208.1306    1.1576807 
  994600    302.30122   -111793.52   -110950.99    -4256.742    9208.2154    1.1576701 
  994700    301.41622   -111793.54   -110953.48    1204.2097     9208.128    1.1576811 
  994800    306.98387      -111813   -110957.42    12772.635    9207.4638    1.1577646 
  994900    295.47688    -111789.4   -110965.89     -1305.13    9208.4608    1.1576392 
  995000    302.80266   -111820.28   -110976.35   -1618.4265    9209.9069    1.1574574 
  995100    295.37027   -111815.19   -110991.98   -370.18517    9210.6795    1.1573604 
  995200    296.99835    -111837.4   -111009.65   -7113.3704    9209.7298    1.1574797 
  995300    284.61769   -111817.73   -111024.48   -12.152852    9207.4285     1.157769 
  995400    287.72745   -111835.02   -111033.11   -2982.9449    9206.4453    1.1578926 
  995500    284.56584   -111829.26   -111036.16   -1641.7876    9206.1747    1.1579267 
  995600    287.49814   -111837.57    -111036.3   -1802.5651    9206.4719    1.1578893 
  995700    294.71668   -111854.53   -111033.14    6193.2983    9207.2275    1.1577943 
  995800     292.9177   -111843.51   -111027.13    7032.6874     9207.315    1.1577833 
  995900    302.98963   -111864.14   -111019.69    840.74759    9207.1392    1.1578054 
  996000     295.9953   -111835.74   -111010.78   -3769.1042    9206.5812    1.1578756 
  996100    292.07985   -111815.95   -111001.91   -2623.8199     9205.418    1.1580219 
  996200     295.1623   -111818.23   -110995.59    6048.1373    9203.6439    1.1582451 
  996300    288.17494   -111791.53   -110988.37    11759.149    9202.8359    1.1583468 
  996400    304.62596   -111830.97   -110981.96    5339.1562    9202.1218    1.1584367 
  996500    310.78787   -111844.63   -110978.44   -1559.8294    9201.2178    1.1585505 
  996600    298.16477   -111805.86   -110974.86    556.89411    9200.6021     1.158628 
  996700    286.76495   -111772.27   -110973.04    1261.6215    9200.0625     1.158696 
  996800    288.25501   -111773.81   -110970.42    8272.7111    9199.3738    1.1587827 
  996900    304.35798    -111815.2   -110966.94    9772.7905    9198.8726    1.1588459 
  997000    301.63906   -111806.27   -110965.58    5580.0592    9200.2526     1.158672 
  997100    304.68137   -111813.17   -110964.01    7573.1428    9202.8505    1.1583449 
  997200    302.06589   -111805.29   -110963.42    5330.6854    9206.1467    1.1579302 
  997300    300.17505   -111799.63   -110963.02   -139.02739    9211.5612    1.1572496 
  997400    313.20674   -111835.97   -110963.04    3707.8459    9218.3446     1.156398 
  997500    302.23203   -111808.14    -110965.8   -4534.2525    9225.7943    1.1554642 
  997600    302.13301   -111812.84   -110970.78    6443.4557    9233.4564    1.1545054 
  997700    293.78904   -111798.91    -110980.1   -812.85388    9241.8272    1.1534597 
  997800    296.73634   -111816.97   -110989.94    6045.1757    9250.1641    1.1524201 
  997900    304.39156   -111850.54   -111002.19     14650.47    9258.5477    1.1513766 
  998000      295.213   -111835.52   -111012.74   -5821.6994    9266.6964    1.1503642 
  998100    295.22412   -111844.88   -111022.07    8188.8974    9273.3637    1.1495371 
  998200    303.29241   -111874.46   -111029.17    8091.1238     9280.107    1.1487018 
  998300    292.46536   -111848.12   -111033.01   -5222.3697    9289.2825    1.1475671 
  998400    292.23475   -111847.53   -111033.05    5710.5792    9300.6727    1.1461618 
  998500    281.39407   -111813.67   -111029.41    837.27709    9312.3037    1.1447302 
  998600    292.30141   -111836.01   -111021.34   -2169.8736    9323.3579     1.143373 
  998700     298.3454   -111838.96   -111007.46   -1140.3579    9334.6529    1.1419895 
  998800    303.06201   -111836.56   -110991.91   -857.15974    9346.8753    1.1404962 
  998900    300.53177   -111817.69   -110980.09   -2050.4177    9360.3647    1.1388526 
  999000    302.91683   -111815.32   -110971.07    2356.1912    9375.4913    1.1370151 
  999100    295.69116   -111789.42   -110965.31    -4084.595    9391.5458    1.1350714 
  999200    300.12204   -111797.08   -110960.62   -3430.5436    9407.9035    1.1330979 
  999300    317.53049   -111843.01   -110958.03   -8441.0806    9423.6266    1.1312073 
  999400    307.37206   -111814.18   -110957.51   -1203.1683    9437.3209    1.1295659 
  999500    309.14126   -111820.54   -110958.95    655.42331     9449.336    1.1281296 
  999600    293.18049   -111776.23   -110959.12   -8372.8457    9460.5823    1.1267885 
  999700    306.69297   -111814.69   -110959.92   -1019.8865    9470.8781    1.1255636 
  999800    296.07019   -111786.28   -110961.11   -715.82833    9480.4267    1.1244299 
  999900    301.99114   -111803.72   -110962.05    -8994.362     9488.091    1.1235216 
 1000000    297.67929   -111793.81   -110964.16    234.65361     9493.494    1.1228822 
Loop time of 96632.7 on 1 procs for 1000000 steps with 936 atoms

Performance: 0.224 ns/day, 107.370 hours/ns, 10.348 timesteps/s
99.9% CPU use with 1 MPI tasks x no OpenMP threads

MPI task timing breakdown:
Section |  min time  |  avg time  |  max time  |%varavg| %total
---------------------------------------------------------------
Pair    | 79783      | 79783      | 79783      |   0.0 | 82.56
Neigh   | 274.32     | 274.32     | 274.32     |   0.0 |  0.28
Comm    | 21.232     | 21.232     | 21.232     |   0.0 |  0.02
Output  | 1.5965     | 1.5965     | 1.5965     |   0.0 |  0.00
Modify  | 16551      | 16551      | 16551      |   0.0 | 17.13
Other   |            | 1.176      |            |       |  0.00

Nlocal:    936 ave 936 max 936 min
Histogram: 1 0 0 0 0 0 0 0 0 0
Nghost:    8880 ave 8880 max 8880 min
Histogram: 1 0 0 0 0 0 0 0 0 0
Neighs:    583128 ave 583128 max 583128 min
Histogram: 1 0 0 0 0 0 0 0 0 0

Total # of neighbors = 583128
Ave neighs/atom = 623
Neighbor list builds = 10000
Dangerous builds not checked

Please see the log.cite file for references relevant to this simulation

Total wall time: 26:50:32
