LAMMPS (09 Jan 2020)
package omp 0
WARNING: OpenMP support not enabled during compilation; using 1 thread only. (../fix_omp.cpp:125)
units			real
atom_style		charge
read_data d800000_lmps.dat
  orthogonal box = (-15 -15 -15) to (50 50 50)
  1 by 1 by 1 MPI processor grid
  reading atoms ...
  936 atoms
  read_data CPU = 0.000793934 secs
reset_timestep		0

pair_style              reax/c lmp_control lgvdw yes
pair_coeff              * * ffield C H O N

neighbor		2.5 bin
neigh_modify		delay 0 every 5 check no

fix			qeq all qeq/reax 1 0.0 10.0 1e-6 reax/c
fix			bonds all reax/c/bonds 500 bonds.reaxc
fix			npt all npt temp 300 300 100 iso 1.0 1.0 2000
fix 1 all reax/c/species 10 10 100 species.out cutoff 1 4 0.25
WARNING: Resetting reneighboring criteria for fix reax/c/species (../fix_reaxc_species.cpp:97)


thermo			100
thermo_style            custom step temp pe etotal press vol density
thermo_modify           flush yes

timestep		0.25

dump			1 all custom 1000 dump/dump.reax.npt.* id type xu yu zu
restart			500 restart.npt300 restart.npt300
run 1000000
Last active /omp style is pair_style reax/c/omp
Neighbor list info ...
  update every 100 steps, delay 0 steps, check no
  max neighbors/atom: 2000, page size: 100000
  master list distance cutoff = 12.5
  ghost atom cutoff = 12.5
  binsize = 6.25, bins = 11 11 11
  2 neighbor lists, perpetual/occasional/extra = 2 0 0
  (1) pair reax/c/omp, perpetual
      attributes: half, newton off, ghost, omp
      pair build: half/bin/newtoff/ghost/omp
      stencil: half/ghost/bin/3d/newtoff
      bin: standard
  (2) fix qeq/reax/omp, perpetual, copy from (1)
      attributes: half, newton off, ghost
      pair build: copy
      stencil: none
      bin: none
Per MPI rank memory allocation (min/avg/max) = 62.66 | 62.66 | 62.66 Mbytes
Step Temp PotEng TotEng Press Volume Density 
       0            0   -111420.79   -111420.79   -342.53993       274625  0.038816842 
     100    150.28274    -111826.7   -111407.85    225.80177    274606.09  0.038819515 
     200    166.67251   -111850.53      -111386   -162.14291    274581.35  0.038823013 
     300    175.64608   -111852.35   -111362.82   -111.63795    274563.85  0.038825488 
     400    171.42454   -111812.01   -111334.24   -49.324401    274517.34  0.038832066 
     500    176.76867   -111795.52   -111302.85   -52.244457    274441.29  0.038842827 
     600    186.90951   -111790.54   -111269.61    296.66736    274349.66  0.038855799 
     700    184.91321   -111749.77   -111234.41   -142.04616    274265.27  0.038867755 
     800    201.07851   -111757.84   -111197.42    339.19307    274187.61  0.038878764 
     900    212.28571   -111750.92   -111159.27    168.52249    274133.42  0.038886449 
    1000    207.77688   -111698.29    -111119.2   -183.61007    274086.58  0.038893094 
    1100    214.11935   -111675.47    -111078.7   -54.784567    274048.21  0.038898541 
    1200    221.50236   -111654.35   -111037.01    85.236302    274038.47  0.038899923 
    1300    237.39096   -111656.68   -110995.06   -104.65013    274063.34  0.038896393 
    1400    248.96851   -111646.93   -110953.04   -19.212292    274083.92  0.038893473 
    1500    246.25668   -111596.34   -110910.01   -163.25039    274101.28  0.038891009 
    1600     252.7939   -111572.65    -110868.1    175.03841    274167.32  0.038881642 
    1700     253.4274   -111532.65   -110826.33   -96.622801    274286.33  0.038864771 
    1800    258.31794   -111504.92   -110784.98    -2.621003    274424.59   0.03884519 
    1900    276.35627   -111515.26   -110745.04    38.745517    274589.26  0.038821895 
    2000     280.8915    -111488.7   -110705.83   -106.56917    274763.89  0.038797221 
    2100    288.07111   -111473.19   -110670.32   -39.016628    274914.56  0.038775958 
    2200    300.05432   -111472.11   -110635.84   -15.457039    275004.88  0.038763222 
    2300    300.93723    -111443.3   -110604.57    56.737814     275070.7  0.038753947 
    2400    294.90837   -111398.54   -110576.61   -163.66041    275138.88  0.038744344 
    2500    310.30942   -111417.25    -110552.4   -162.09926    275189.47  0.038737221 
    2600    317.62483   -111417.62   -110532.38   -169.65485    275218.59  0.038733123 
    2700     303.7181   -111363.53   -110517.05   -46.213119    275300.77   0.03872156 
    2800    309.58488   -111367.66   -110504.83   -127.57989    275382.93  0.038710008 
    2900    313.65029   -111371.05   -110496.89    73.093191    275439.48   0.03870206 
    3000    307.41357   -111350.22   -110493.44   -275.18037    275471.81  0.038697518 
    3100     322.5905   -111395.41   -110496.33   -254.49593     275486.4  0.038695469 
    3200    307.81483   -111362.37   -110504.47   -21.298586    275461.03  0.038699032 
    3300    304.81426   -111365.49   -110515.95    105.75253     275409.9  0.038706218 
    3400    295.82425   -111354.69   -110530.21   -234.43677    275374.01  0.038711261 
    3500    307.09262    -111400.8   -110544.91   -279.40915    275322.07  0.038718565 
    3600    293.35456   -111377.34   -110559.74   -104.31734    275250.35  0.038728653 
    3700    301.65207   -111414.21   -110573.48    308.66514    275171.77  0.038739714 
    3800     287.6126   -111387.88   -110586.28   -285.26388    275096.52  0.038750309 
    3900    290.50554   -111406.72   -110597.07     -61.1261    274991.02  0.038765176 
    4000    301.72908   -111445.43    -110604.5   -56.288777    274874.65  0.038781588 
    4100     298.7881    -111442.8   -110610.06    81.065726    274770.67  0.038796264 
    4200    290.06539   -111421.61   -110613.18    54.965388    274694.08  0.038807081 
    4300    289.93611   -111422.09   -110614.02     45.76776    274644.88  0.038814032 
    4400    294.77213   -111433.01   -110611.46   -136.60101    274591.12  0.038821632 
    4500    295.14924   -111428.48   -110605.89   -295.61776    274510.93  0.038832973 
    4600    295.65922    -111423.5   -110599.48   -230.23975     274366.1  0.038853471 
    4700    285.76226   -111388.16   -110591.72   -106.16802     274154.1  0.038883517 
    4800    293.62974   -111398.28   -110579.92    51.883935    273920.01  0.038916746 
    4900    306.43826   -111422.27   -110568.21    225.72263    273724.66   0.03894452 
    5000    307.63836   -111414.55   -110557.14     404.1368    273586.85  0.038964136 
    5100    300.68076   -111385.73   -110547.72    -228.5694    273454.11   0.03898305 
    5200    305.66764   -111390.74   -110538.83   -15.305856    273257.31  0.039011126 
    5300    301.42321   -111371.02   -110530.94   -121.82468    273028.59  0.039043806 
    5400    309.23205   -111386.13   -110524.28   -211.01499    272776.61  0.039079874 
    5500    303.14124   -111363.19   -110518.31    193.93887    272531.93   0.03911496 
    5600    315.89906   -111393.83    -110513.4   -401.74091    272312.35    0.0391465 
    5700    308.30542    -111372.3   -110513.03    70.321648     272066.9  0.039181816 
    5800    301.34062   -111356.76   -110516.91    42.016979    271843.34   0.03921404 
    5900    299.55478   -111358.87   -110523.99   -503.67568    271600.63  0.039249082 
    6000    305.25922   -111383.89   -110533.11    367.50888    271335.16  0.039287482 
    6100    301.58372   -111386.21   -110545.67   -209.67209    271099.73  0.039321601 
    6200    296.45482   -111385.05   -110558.81   -216.26243    270883.76  0.039352952 
    6300    297.24322   -111398.76   -110570.33   -131.83345    270673.45  0.039383527 
    6400    298.15465   -111412.38   -110581.41   -20.184776    270463.57  0.039414089 
    6500    296.31247   -111415.29   -110589.45    399.19402    270282.73   0.03944046 
    6600    290.70138   -111406.77   -110596.57     146.9845    270126.61  0.039463256 
    6700    294.49122   -111421.98   -110601.21    5.5616555    270007.35  0.039480687 
    6800    297.46408   -111432.82   -110603.77   -258.76716    269902.37  0.039496042 
    6900    296.69847   -111431.87   -110604.96     -104.524    269783.29  0.039513475 
    7000    285.10245   -111399.49    -110604.9    154.28691     269630.6  0.039535852 
    7100    295.39299   -111425.59   -110602.31   -211.93081    269443.66  0.039563281 
    7200    299.61939   -111433.06      -110598    12.613393    269248.11  0.039592016 
    7300    295.44196   -111415.36   -110591.95    417.68835    269072.17  0.039617904 
    7400    293.61799   -111400.38   -110582.05    70.864195    268935.74  0.039638002 
    7500    306.73992   -111425.51   -110570.61   -441.49813    268834.27  0.039652964 
    7600    302.69385    -111402.5   -110558.88    96.496868    268685.63  0.039674899 
    7700    301.84061   -111388.93   -110547.69   -219.08817    268537.72  0.039696753 
    7800    298.52774   -111369.31    -110537.3   -176.96384    268390.52  0.039718524 
    7900     323.7782   -111431.43   -110529.04   -97.531619    268230.04  0.039742288 
    8000    307.24989   -111380.14   -110523.82   -128.81678    268086.44  0.039763575 
    8100    314.77897   -111397.13   -110519.82   -330.92285    267973.54  0.039780328 
    8200    306.59384   -111374.11   -110519.62   -112.45227    267845.11  0.039799403 
    8300    301.17874   -111361.29   -110521.88   -105.12319    267738.15  0.039815302 
    8400    316.33768    -111408.4   -110526.75    259.24095    267651.27  0.039828227 
    8500    297.89084   -111364.15   -110533.91   -109.18081    267565.04  0.039841062 
    8600    300.12647   -111378.48   -110542.01   -153.99151    267436.93  0.039860148 
    8700    302.86744   -111395.13   -110551.02   -184.82065    267308.71  0.039879266 
    8800    309.74143    -111423.9   -110560.64   -246.77662    267208.55  0.039894215 
    8900    296.01295   -111396.31    -110571.3    10.811939    267140.72  0.039904345 
    9000    292.45814   -111396.44   -110581.35   -476.86039    267095.91  0.039911039 
    9100    291.78657   -111403.76   -110590.53    155.69574    267047.14  0.039918329 
    9200    290.70261   -111408.15   -110597.94  -0.65741442       266984  0.039927769 
    9300    287.95249   -111406.17   -110603.63   -391.21012     266918.3  0.039937596 
    9400    302.58007    -111448.8   -110605.49   -57.228422    266823.46  0.039951792 
    9500    289.70034   -111412.63   -110605.22   -67.199365    266718.93  0.039967449 
    9600    289.09627   -111407.96   -110602.23    104.96887    266622.61  0.039981888 
    9700    305.78755   -111450.32   -110598.07   -124.16949    266553.74  0.039992219 
    9800    296.36064   -111419.88    -110593.9   -50.607519     266494.5  0.040001109 
    9900    305.05157   -111440.32   -110590.12   -103.60972     266424.2  0.040011664 
   10000    307.13171   -111442.98   -110586.99    -263.4242    266249.56  0.040037907 
   10100    293.17814   -111401.16   -110584.06   -42.280456     266013.6  0.040073422 
   10200    291.31751   -111393.15   -110581.23   -68.481919    265828.28   0.04010136 
   10300    295.60039   -111399.37   -110575.52    198.09295    265735.42  0.040115373 
   10400    302.77926   -111412.72   -110568.85   -8.9924213    265694.02  0.040121623 
   10500    308.74684   -111422.33   -110561.84   -228.83205    265626.14  0.040131877 
   10600    303.47139   -111401.01   -110555.22   -116.36375    265526.68  0.040146909 
   10700    300.85865   -111388.09   -110549.58    566.76791    265397.79  0.040166406 
   10800     310.6525   -111411.03   -110545.22   -22.887508    265294.82  0.040181996 
   10900    303.57816   -111389.57   -110543.48    220.67338     265173.2  0.040200425 
   11000    308.49681   -111403.06   -110543.26   -263.66075    265051.11  0.040218942 
   11100    308.72448    -111407.9   -110547.47   -25.691101    264916.84  0.040239327 
   11200    295.19447   -111377.93    -110555.2   -38.788964    264802.03  0.040256773 
   11300    302.94832    -111408.1   -110563.77    87.526486    264652.58  0.040279507 
   11400    297.46011   -111402.36   -110573.32   -172.25101    264474.83  0.040306577 
   11500    298.75658   -111414.73   -110582.08    -37.97893    264258.33  0.040339599 
   11600    292.73395   -111405.81   -110589.94   -345.78558    264018.01  0.040376319 
   11700     285.5063   -111390.24   -110594.52    142.31263    263782.79  0.040412323 
   11800    283.51425   -111387.67    -110597.5   -56.026483    263589.62  0.040441939 
   11900    292.83125   -111413.31   -110597.17   -102.38001    263416.25  0.040468556 
   12000    297.89959   -111424.55   -110594.29    52.353151    263217.28  0.040499147 
   12100    294.93421   -111412.25   -110590.25    318.24221    263009.81  0.040531094 
   12200    298.12691   -111415.16   -110584.27    286.90415    262832.68   0.04055841 
   12300    299.82953   -111413.04   -110577.39    22.421236    262683.37  0.040581462 
   12400    315.21751   -111451.96   -110573.43   -376.30347    262539.12  0.040603759 
   12500    307.49799   -111428.93   -110571.92   -168.25282    262365.13  0.040630687 
   12600    305.62086   -111424.06   -110572.28    234.20847    262212.32  0.040654365 
   12700    314.83575   -111449.51   -110572.04   -269.77476    262074.06  0.040675812 
   12800    294.98146   -111395.79   -110573.66    190.23574    261922.04  0.040699421 
   12900    306.58817   -111430.52   -110576.04   -21.678081    261766.04  0.040723677 
   13000    299.31818   -111413.59   -110579.37    79.961647       261596  0.040750147 
   13100    300.00467   -111420.03    -110583.9   -111.12171    261406.09  0.040779752 
   13200    293.26782   -111404.99   -110587.64    203.73879    261194.68  0.040812758 
   13300    290.70655   -111399.33   -110589.11    484.69086    260972.67  0.040847478 
   13400    287.42693   -111390.61   -110589.53   -233.09618    260715.85  0.040887715 
   13500    298.90012   -111420.77   -110587.71    50.848327    260422.05  0.040933843 
   13600    291.36408    -111394.5   -110582.45   -133.59746    260088.83  0.040986287 
   13700    308.01636    -111432.1   -110573.64    8.5884952    259736.28   0.04104192 
   13800    310.63596   -111428.84   -110563.08   -82.765366     259389.5  0.041096788 
   13900    298.80999   -111384.97   -110552.17   -258.82513    259016.96  0.041155897 
   14000    302.71385   -111384.42   -110540.74   -219.99958    258586.09  0.041224474 
   14100    306.23995   -111384.22   -110530.71    12.992645    258106.05  0.041301144 
   14200    313.17456   -111396.58   -110523.75    151.80483    257641.46  0.041375622 
   14300    303.01048    -111364.2   -110519.69   -206.28594    257238.36  0.041440457 
   14400    299.47713   -111352.92   -110518.26    76.841911    256883.05  0.041497777 
   14500     320.3731   -111411.35   -110518.45   -36.280113    256552.31  0.041551275 
   14600    315.65426   -111403.14    -110523.4    34.097363    256218.14  0.041605467 
   14700    304.18668   -111382.67   -110534.89     219.5968    255891.83  0.041658521 
   14800    298.72674   -111385.11   -110552.54   -125.59938    255609.38  0.041704555 
   14900    297.21507   -111400.44   -110572.08   -89.787088    255304.73   0.04175432 
   15000    288.85778      -111392   -110586.94   -80.874576    254956.28  0.041811385 
   15100    298.12789   -111424.24   -110593.34   -21.384582    254571.88  0.041874521 
   15200    300.96157   -111433.08   -110594.29   -98.721984    254203.77  0.041935158 
   15300    288.39054   -111396.39   -110592.63    17.522162     253895.5  0.041986075 
   15400    286.43883   -111387.65   -110589.33   -94.570077    253611.07  0.042033163 
   15500    299.83922   -111421.77    -110586.1   -137.62434    253283.09  0.042087593 
   15600    296.12307   -111407.77   -110582.45   -86.141608    252886.57  0.042153585 
   15700    297.83795   -111406.31   -110576.22   -41.831142     252436.2  0.042228791 
   15800    298.35298   -111401.16   -110569.63    277.56478    251976.26  0.042305871 
   15900    301.84054   -111403.98   -110562.73   -161.73976    251529.19  0.042381067 
   16000    292.71226   -111372.78   -110556.97   -286.70018     251069.3  0.042458698 
   16100     308.2262   -111410.06   -110551.02   -168.03612    250566.62  0.042543877 
   16200    294.69281   -111366.45   -110545.13     51.64346    250037.32  0.042633937 
   16300    295.13638    -111360.2   -110537.64    -98.75751    249533.55  0.042720008 
   16400    312.30473   -111400.27   -110529.86    131.36645    249033.13  0.042805852 
   16500    319.56811   -111411.75    -110521.1    28.755298    248530.56  0.042892413 
   16600    301.39641    -111356.6   -110516.59   -49.785486    248055.74  0.042974516 
   16700    308.18081   -111373.48   -110514.56    -93.56484    247604.93  0.043052759 
   16800    305.35567   -111367.28   -110516.24   -185.51425    247152.74  0.043131528 
   16900    305.93875   -111373.35   -110520.69    199.68591    246684.67  0.043213368 
   17000    301.15648   -111366.33   -110526.99    144.47738    246215.54  0.043295705 
   17100    305.30384   -111387.52   -110536.62   -19.512949    245734.28  0.043380497 
   17200    306.89635   -111405.25   -110549.91    -2.168969    245226.25  0.043470369 
   17300    309.39047   -111426.27   -110563.99    43.878519    244694.56  0.043564823 
   17400    299.12141   -111410.91   -110577.24   -615.38279    244158.14  0.043660537 
   17500    302.33297   -111431.48   -110588.86    75.958073    243612.38  0.043758348 
   17600    294.25042   -111415.58   -110595.48    104.19143    243102.13  0.043850193 
   17700    293.73893   -111417.73   -110599.06   -101.33284    242606.67  0.043939746 
   17800    298.74518   -111432.92    -110600.3    49.745477    242127.78  0.044026651 
   17900    302.73841   -111442.52   -110598.77   -139.34089    241661.87  0.044111533 
   18000    293.23431   -111414.67   -110597.41    263.52443    241181.02  0.044199479 
   18100    291.13145   -111404.69   -110593.29   -148.62758     240680.1  0.044291469 
   18200     291.1248   -111396.48    -110585.1    77.467954    240153.12   0.04438866 
   18300    306.54752   -111426.86   -110572.49    243.53827    239635.25  0.044484587 
   18400    306.16465   -111412.07   -110558.77   -125.65589    239163.65  0.044572306 
   18500    308.76287   -111408.65   -110548.11   -439.20298    238738.05  0.044651766 
   18600    305.93717   -111393.03   -110540.37    675.08549    238283.19  0.044737001 
   18700    321.71763   -111433.03   -110536.38     120.0468     237846.6  0.044819119 
   18800    313.81535   -111412.81   -110538.19   -231.89747     237427.3  0.044898272 
   18900    309.22399   -111404.05   -110542.22   -47.867876    237003.22  0.044978609 
   19000    300.28362   -111386.05   -110549.14   -131.67467    236575.79  0.045059874 
   19100    299.28024   -111389.94   -110555.83    220.42082    236122.84  0.045146311 
   19200    311.98887   -111431.81   -110562.28   -214.42828    235673.46  0.045232396 
   19300    298.42152   -111399.34   -110567.62    496.62286    235248.01    0.0453142 
   19400    307.51036   -111426.78   -110569.73    11.050819    234860.07  0.045389049 
   19500    291.51221   -111384.14   -110571.68    29.178442    234481.66  0.045462298 
   19600    301.87731   -111414.65    -110573.3    293.10187     234101.7  0.045536087 
   19700    298.82504   -111408.29   -110575.45   -200.07947    233698.32  0.045614686 
   19800     300.5575   -111414.31   -110576.63    354.74267    233282.18  0.045696056 
   19900    309.55253   -111440.51   -110577.77    196.95693     232880.5  0.045774874 
   20000    292.72766   -111395.25   -110579.41    457.59595    232512.44  0.045847334 
   20100    297.76432   -111410.18    -110580.3    318.28214       232163   0.04591634 
   20200    294.96352   -111401.88    -110579.8   -384.11184    231855.88  0.045977163 
   20300    296.80392    -111406.2   -110578.99     145.4895    231578.19  0.046032294 
   20400    303.28998   -111422.44   -110577.15   -77.288746    231307.39  0.046086185 
   20500      305.576   -111427.66      -110576    126.73215    231017.23   0.04614407 
   20600    294.31041    -111394.1   -110573.84    44.483569    230721.76  0.046203164 
   20700    299.85584    -111405.1   -110569.38    156.73829    230431.95  0.046261274 
   20800    298.81794   -111395.67   -110562.84   -136.22135    230144.76  0.046319001 
   20900    298.30133   -111386.02   -110554.64    120.53811    229881.09  0.046372129 
   21000    304.60771   -111392.68   -110543.72   -394.80636    229666.96  0.046415363 
   21100    306.27254   -111387.09   -110533.49    139.27841    229459.29  0.046457372 
   21200    317.28601   -111409.36   -110525.06    170.62245    229276.69   0.04649437 
   21300    309.42782   -111381.79    -110519.4    250.21028     229115.1  0.046527161 
   21400    318.18469   -111404.18   -110517.38   -54.155323    228947.65  0.046561192 
   21500    302.05318   -111363.06   -110521.22    120.86312    228771.77  0.046596989 
   21600    310.59276   -111395.61   -110529.97    43.294541    228578.98   0.04663629 
   21700    317.57416   -111428.04   -110542.94    -194.5713     228366.5   0.04667968 
   21800    297.13538   -111387.43    -110559.3   -139.80885    228131.49  0.046727768 
   21900    295.39634   -111396.98    -110573.7   -5.3655073     227929.2   0.04676924 
   22000    298.61823    -111416.3   -110584.03     159.9116    227783.15  0.046799227 
   22100    298.56639   -111421.81   -110589.68   -284.45168    227645.31  0.046827565 
   22200    299.01506   -111426.34   -110592.97   -28.635547     227475.8  0.046862458 
   22300    287.61901   -111394.86   -110593.25    555.80885    227293.87  0.046899969 
   22400    289.70739   -111399.91   -110592.48   -34.418171    227140.44  0.046931648 
   22500     288.6668   -111394.13   -110589.59    168.81896    227018.52  0.046956853 
   22600    295.88306   -111408.44    -110583.8    714.46038    226924.12  0.046976388 
   22700    307.77771   -111433.41   -110575.62   -185.83925    226830.47  0.046995781 
   22800    292.15854   -111382.12   -110567.86   -170.64153    226714.08  0.047019909 
   22900     306.3224   -111413.06   -110559.32   -148.34777    226551.91  0.047053566 
   23000    300.53729   -111388.78   -110551.17   -115.33884    226335.54  0.047098548 
   23100    295.76462   -111369.06   -110544.75    377.09734    226103.32  0.047146921 
   23200    311.24816   -111407.95   -110540.49   -48.840993    225879.06  0.047193731 
   23300    307.31547   -111395.04   -110538.53   -8.3682862     225654.1  0.047240778 
   23400    308.64848   -111400.03   -110539.81    289.03231    225423.41  0.047289123 
   23500    307.95446   -111402.34   -110544.05    382.35803    225148.41  0.047346883 
   23600    307.96046   -111410.97   -110552.66    39.322404    224865.35  0.047406483 
   23700    298.54793   -111396.08   -110564.01   -19.669031    224576.58  0.047467441 
   23800    297.69103   -111409.81   -110580.13   -56.278546     224286.1  0.047528916 
   23900    288.13683   -111402.42   -110599.37   -91.327533    223994.96  0.047590693 
   24000    294.48194   -111438.56   -110617.83   -80.801757     223719.4  0.047649311 
   24100    293.77963   -111448.66   -110629.88     10.86604    223467.48  0.047703027 
   24200    297.99656    -111466.4   -110635.87   -142.01845    223235.18  0.047752667 
   24300    287.38665    -111438.7   -110637.74   -314.39771    223010.11  0.047800861 
   24400    291.95708   -111450.11   -110636.41   -154.02999    222774.16  0.047851489 
   24500    283.26016   -111422.18   -110632.72     170.5491     222522.5  0.047905606 
   24600    293.97208   -111445.42    -110626.1    574.81521    222284.84  0.047956827 
   24700    297.34628   -111444.96   -110616.24   -54.425535    222105.28  0.047995596 
   24800    296.37964   -111431.81   -110605.78    226.96258    221978.11  0.048023092 
   24900     289.5629    -111401.4   -110594.37    167.42468    221894.66  0.048041153 
   25000    303.01684   -111427.75   -110583.22    6.7452074    221838.33  0.048053353 
   25100    314.71278   -111449.94   -110572.82    204.15951    221769.93  0.048068173 
   25200    312.04691   -111435.12   -110565.43    404.71291    221679.08  0.048087872 
   25300    305.70459   -111413.16   -110561.15    40.109761    221587.63  0.048107719 
   25400    313.68149   -111434.74   -110560.49   -281.70593    221523.11  0.048121731 
   25500    310.36339   -111426.56   -110561.56    514.00858    221467.84   0.04813374 
   25600    306.46414   -111418.78   -110564.65    81.949518    221419.86  0.048144171 
   25700    304.27681   -111418.38   -110570.35    278.12272    221339.04   0.04816175 
   25800      290.595   -111386.46   -110576.55    68.283191     221221.2  0.048187404 
   25900    290.35066   -111392.68   -110583.45   -16.611002     221093.5  0.048215236 
   26000    292.40272   -111403.93   -110588.98    -134.1204    220967.18    0.0482428 
   26100    289.92294   -111402.42   -110594.39    128.66419    220827.33  0.048273352 
   26200    285.44931    -111394.8   -110599.24   -124.75912    220648.45  0.048312487 
   26300    281.35597   -111388.41   -110604.26    192.09422    220470.54  0.048351473 
   26400    301.19904   -111448.89   -110609.43    100.77494    220323.43  0.048383758 
   26500    294.25907    -111432.9   -110612.78   -460.94721    220196.25  0.048411703 
   26600    301.80666   -111455.77   -110614.62    142.16924    220048.99    0.0484441 
   26700    298.25625   -111444.59   -110613.33    114.90445    219886.12  0.048479982 
   26800     296.2671   -111432.42   -110606.71   -284.84662    219726.27  0.048515251 
   26900    302.86378   -111441.76   -110597.66    5.8364808    219586.91  0.048546042 
   27000    299.60904   -111421.55   -110586.52   -68.537827    219487.64  0.048567998 
   27100    293.41525   -111391.72   -110573.95    151.34163    219405.13  0.048586264 
   27200    294.93127   -111384.69    -110562.7   -55.622271    219293.69  0.048610953 
   27300    305.05175   -111401.62   -110551.43   -217.10628    219168.85  0.048638642 
   27400    313.62349   -111416.58   -110542.49    42.499355    219048.18  0.048665436 
   27500    304.34483   -111386.23      -110538    43.222395    218931.32  0.048691412 
   27600     316.3536   -111417.43   -110535.73     184.9903    218804.85  0.048719557 
   27700    305.95317   -111390.27   -110537.56   -498.69581    218676.18  0.048748223 
   27800    297.45213   -111370.82    -110541.8    80.972041    218536.81  0.048779312 
   27900    308.79561   -111409.27   -110548.64    31.557184    218413.85  0.048806773 
   28000    300.43725   -111394.55   -110557.22    56.789339    218314.02  0.048829093 
   28100    304.30814   -111413.93    -110565.8    23.185134    218245.84  0.048844346 
   28200    301.99466   -111418.45   -110576.78   -219.18119    218173.14  0.048860623 
   28300    301.08912   -111427.81   -110588.65    42.767292    218074.06  0.048882821 
   28400    288.81328   -111404.24    -110599.3   -206.07858    217983.02  0.048903238 
   28500    295.94662   -111431.99   -110607.17   -225.23606    217907.65  0.048920152 
   28600    291.70696    -111427.6    -110614.6   -346.03041    217823.05  0.048939151 
   28700    309.17275    -111480.4   -110618.72   -15.395046    217701.42  0.048966493 
   28800    291.45316   -111432.83   -110620.53   -274.83058    217579.09  0.048994024 
   28900    297.92722   -111450.68   -110620.34   -80.177548    217479.48  0.049016465 
   29000    288.13946   -111419.29   -110616.22    137.63357     217380.5  0.049038785 
   29100    299.42099   -111444.61    -110610.1    391.03807    217256.59  0.049066753 
   29200    290.34909   -111412.26   -110603.04   -427.67273     217117.3   0.04909823 
   29300    288.36483   -111400.73   -110597.05   -32.388906    216953.77  0.049135238 
   29400    298.70385   -111426.11   -110593.61     177.3704    216770.25  0.049176838 
   29500    307.35465   -111448.83   -110592.21   -198.67953    216580.59  0.049219902 
   29600    305.15077    -111440.2   -110589.73    -127.3696    216391.34  0.049262949 
   29700    283.95199   -111379.81   -110588.42     45.68043    216226.35  0.049300538 
   29800    301.20778   -111425.86   -110586.37   -195.09704    216092.72  0.049331024 
   29900    297.49328   -111412.96   -110583.83    17.013029    215966.86  0.049359773 
   30000    299.85792   -111416.47   -110580.75    144.07644    215830.45  0.049390969 
   30100    318.89992   -111466.18   -110577.39   -364.13914    215705.35  0.049419615 
   30200     303.7999   -111421.27   -110574.57    378.42024    215617.24  0.049439811 
   30300    298.19263   -111402.88    -110571.8    425.29716    215570.61  0.049450505 
   30400    296.60448   -111394.51   -110567.85    25.963731       215543  0.049456838 
   30500    308.83998   -111424.25    -110563.5    95.319819    215514.27  0.049463431 
   30600    294.24949   -111379.97   -110559.88   -282.04295    215480.79  0.049471117 
   30700    307.13178   -111413.08   -110557.09  -0.90172228    215449.54  0.049478293 
   30800    314.98137   -111433.95   -110556.07   -597.96829    215371.46   0.04949623 
   30900    297.53677   -111386.03   -110556.78   -264.00257    215238.46  0.049526816 
   31000     306.3164   -111413.66   -110559.93    -26.73686    215112.91  0.049555721 
   31100    302.84672   -111407.08   -110563.03    361.96936    215038.14  0.049572952 
   31200    300.53868   -111405.31   -110567.69    163.68306    215008.09   0.04957988 
   31300    299.83269   -111410.52   -110574.87    126.24683    214972.96  0.049587983 
   31400    298.87513   -111417.19   -110584.21   -158.82251    214911.64  0.049602131 
   31500    296.60521   -111422.35   -110595.69   -66.070413    214819.37  0.049623437 
   31600    291.72239   -111419.21   -110606.17    418.15821    214714.59  0.049647652 
   31700    296.87649      -111442   -110614.59    229.35967    214637.56  0.049665471 
   31800    292.76461   -111436.44   -110620.49   -298.63049    214583.65  0.049677947 
   31900    286.86526    -111424.4   -110624.89    -298.9846    214499.24  0.049697497 
   32000    281.30805   -111410.28   -110626.26    178.42825    214399.09  0.049720712 
   32100    291.70788    -111436.6    -110623.6    294.23502    214331.87  0.049736306 
   32200    294.84855   -111439.46    -110617.7    432.84367    214306.83  0.049742116 
   32300    295.56593   -111428.77   -110605.01   -365.90939    214264.03  0.049752052 
   32400    301.28838   -111427.13   -110587.42    250.35945    214164.52  0.049775169 
   32500    297.89107   -111398.74    -110568.5     440.6756    214039.17  0.049804321 
   32600    305.07907   -111404.62   -110554.34    449.70536    213917.27  0.049832701 
   32700    296.54757   -111372.71   -110546.21   -189.51297    213824.42  0.049854341 
   32800    299.07726   -111375.41   -110541.87    364.71439    213719.55  0.049878804 
   32900    309.43678    -111403.4   -110540.98    77.271517    213586.29  0.049909922 
   33000    304.46534   -111390.87    -110542.3    104.75853    213433.91  0.049945556 
   33100    304.15542   -111392.73   -110545.03    320.29762    213277.96  0.049982078 
   33200    308.59352   -111409.87   -110549.81    -165.1328    213116.72  0.050019893 
   33300    312.67878    -111427.2   -110555.75   -160.37622    212923.59  0.050065262 
   33400    299.77939   -111398.16   -110562.65    168.77132    212683.13  0.050121867 
   33500    307.47228   -111426.89   -110569.95   -227.09967    212443.63  0.050178372 
   33600    305.52546   -111429.78   -110578.26     243.0939    212197.19  0.050236648 
   33700    281.95041   -111372.81      -110587    32.668946    211958.98  0.050293107 
   33800    300.90241   -111434.23   -110595.59    65.267162    211714.22  0.050351248 
   33900    292.33702   -111418.91   -110604.15    163.12894    211476.76  0.050407786 
   34000    291.63122   -111425.23   -110612.44   -442.87595    211250.03  0.050461889 
   34100    286.61117   -111418.35   -110619.55    299.63838    211005.18  0.050520445 
   34200    295.86761   -111448.07   -110623.47   -32.881924    210792.51  0.050571413 
   34300    296.63507   -111451.64    -110624.9    194.12093    210617.49  0.050613438 
   34400    282.82858   -111411.93   -110623.67    54.226967    210452.61  0.050653091 
   34500    293.92585   -111438.51   -110619.32    90.640769    210275.28  0.050695809 
   34600    283.06583   -111397.71   -110608.79    157.02588    210114.84   0.05073452 
   34700    302.67039   -111428.17   -110584.61    22.881214    209968.54  0.050769868 
   34800    300.66649   -111393.75   -110555.77   -435.25819    209822.94    0.0508051 
   34900    316.84575   -111421.06   -110537.99   -50.598985    209628.39   0.05085225 
   35000    313.18025   -111403.92   -110531.07    48.284761    209400.93  0.050907488 
   35100    319.08063   -111419.69   -110530.39    759.65238    209167.39  0.050964328 
   35200    301.73509   -111374.51   -110533.56   -429.90358    208971.49  0.051012103 
   35300    296.57179   -111364.82   -110538.26   -294.98951    208791.07  0.051056185 
   35400    302.33785   -111387.22   -110544.59   -168.31863    208620.74  0.051097869 
   35500    297.24696   -111380.69   -110552.25   -234.88456    208449.65   0.05113981 
   35600     308.5057    -111419.6   -110559.78   -134.44448    208281.98  0.051180977 
   35700    300.53206   -111408.04   -110570.44    167.97099    208144.17  0.051214865 
   35800    306.68801   -111434.34   -110579.59    41.794239    208047.88  0.051238569 
   35900    297.83227   -111417.72   -110587.65   -125.52146    208004.78  0.051249186 
   36000    304.51967   -111444.08   -110595.36    -360.5445    207974.29  0.051256698 
   36100    304.49206   -111449.83   -110601.19   -404.54914    207909.08  0.051272773 
   36200     292.8175   -111422.11   -110606.02    542.49752    207815.13  0.051295953 
   36300    291.61504   -111424.01   -110611.26   -168.52825    207721.28  0.051319131 
   36400    288.68697   -111419.08   -110614.49    595.05053    207612.28  0.051346074 
   36500    290.52145   -111423.67   -110613.97   -117.33416     207523.8  0.051367965 
   36600    291.72171   -111425.37   -110612.32   -212.16359    207432.56  0.051390561 
   36700    292.03105   -111422.64   -110608.73   -347.59593    207310.85  0.051420731 
   36800    302.33659   -111443.48   -110600.85   -345.49181    207135.65  0.051464222 
   36900    296.31162   -111412.74    -110586.9   -290.18988    206943.24  0.051512072 
   37000    305.97521    -111419.8   -110567.03    124.11655    206766.11  0.051556202 
   37100    309.88475   -111413.39   -110549.72   -37.121444    206594.19  0.051599105 
   37200     312.9689   -111410.07    -110537.8   -90.979516    206412.12   0.05164462 
   37300    308.95441   -111392.26   -110531.18    114.93767    206250.88  0.051684994 
   37400    302.08088   -111370.64   -110528.72   -258.43337       206129  0.051715553 
   37500    301.24077   -111368.77    -110529.2    374.82949     206011.5  0.051745049 
   37600    295.21069   -111354.48   -110531.71   -333.10245    205883.36  0.051777256 
   37700    301.92897   -111377.75   -110536.25    73.913652    205721.24  0.051818058 
   37800    309.00435   -111402.55   -110541.33    -31.59925    205565.68  0.051857272 
   37900    301.67162   -111390.77   -110549.99   -278.15334    205407.06  0.051897318 
   38000     305.1462   -111410.99   -110560.53   -128.46897    205269.87  0.051932002 
   38100    297.46869   -111401.64   -110572.58   -171.25722    205153.43  0.051961478 
   38200    295.14506    -111404.4   -110581.81   -14.433708    205056.58   0.05198602 
   38300    287.92188   -111389.15    -110586.7   -48.318601    204943.62  0.052014672 
   38400    292.15622   -111403.21   -110588.95   -651.10544    204792.59  0.052053033 
   38500    298.29951   -111421.07   -110589.69    195.31814    204603.43  0.052101156 
   38600    288.73793   -111395.67   -110590.94    239.03519    204399.98  0.052153015 
   38700    293.48145   -111406.42   -110588.47   -248.19023    204181.42   0.05220884 
   38800    303.44484   -111430.59   -110584.88    55.854592    203960.38  0.052265421 
   38900    290.99708   -111392.36   -110581.34   -92.972546     203756.5  0.052317719 
   39000    296.19183   -111404.13   -110578.63    78.918759    203566.49  0.052366553 
   39100    294.52636   -111395.91   -110575.05    172.24886    203367.14  0.052417885 
   39200    292.81804   -111387.67   -110571.57   -567.30238    203126.37  0.052480017 
   39300    299.75244   -111405.02   -110569.59    294.88377    202848.44  0.052551922 
   39400    312.60171   -111440.05   -110568.81   -410.18355    202590.93  0.052618721 
   39500    306.48099   -111422.24   -110568.06     76.96887    202351.06  0.052681095 
   39600    306.44784   -111423.42   -110569.33    177.15826    202130.73  0.052738518 
   39700    281.72049   -111354.54   -110569.37   -191.13671    201925.88   0.05279202 
   39800    290.31647   -111377.41   -110568.28    -135.8429    201720.38  0.052845801 
   39900    298.97225   -111400.51   -110567.25    568.77974    201520.87  0.052898122 
   40000    316.59639   -111450.54   -110568.16   -168.04968    201368.31  0.052938197 
   40100    295.25063      -111393   -110570.12    369.66799    201224.24  0.052976099 
   40200    311.55166   -111440.68   -110572.37    710.11448    201099.41  0.053008984 
   40300    293.59083   -111395.08   -110576.82   -249.11536     200992.2   0.05303726 
   40400    296.81283   -111412.08   -110584.84     127.5926    200884.09  0.053065802 
   40500    296.39905   -111427.35   -110601.26   -778.85646    200794.14  0.053089575 
   40600     286.8159    -111421.9   -110622.53    354.10262    200718.15  0.053109674 
   40700    274.58848   -111405.16   -110639.87   -629.75558    200693.21  0.053116273 
   40800    288.39204   -111453.68   -110649.92   -307.55489    200654.86  0.053126425 
   40900    284.73278    -111446.6   -110653.03     -402.887     200602.5  0.053140292 
   41000    290.51167   -111461.96   -110652.28   -116.63731    200536.23  0.053157853 
   41100    284.29235    -111440.2   -110647.86   -30.145197     200480.5  0.053172629 
   41200    288.80587    -111443.6   -110638.68   -651.18228    200415.84  0.053189784 
   41300    282.09538    -111411.2   -110624.98    62.519397    200357.32  0.053205319 
   41400    290.78224   -111419.39   -110608.97    117.87439    200279.33   0.05322604 
   41500    283.92778   -111385.44   -110594.11    347.32654    200156.26  0.053258767 
   41600    298.41978   -111414.59   -110582.87   -384.50923    200016.94  0.053295863 
   41700    311.09815   -111441.57   -110574.52   -197.49847    199865.82  0.053336161 
   41800    299.92315      -111406    -110570.1   -318.27625    199712.69  0.053377056 
   41900    305.74767   -111418.11   -110565.97   -219.45992    199533.92  0.053424877 
   42000    301.96573   -111403.06   -110561.47   -122.52343    199368.01  0.053469337 
   42100    294.21897   -111378.08   -110558.07     -85.8155    199211.11  0.053511451 
   42200     292.0652   -111367.95   -110553.95    97.588044     199080.5  0.053546557 
   42300    307.01616   -111405.95   -110550.28   -18.050623    198959.09  0.053579232 
   42400    310.22387   -111411.37   -110546.76    386.30613    198841.29  0.053610976 
   42500    305.70036   -111396.44   -110544.44    213.88704    198699.13   0.05364933 
   42600    295.12913   -111365.15   -110542.61    157.62794    198557.59  0.053687575 
   42700    303.79559   -111390.38   -110543.69     417.7902    198426.73   0.05372298 
   42800    311.39215   -111415.06   -110547.19     220.0845    198313.23  0.053753728 
   42900    298.57419   -111389.02   -110556.87   -2.8160911    198230.01  0.053776294 
   43000    300.03608   -111407.74   -110571.52    220.78076    198173.33  0.053791676 
   43100    298.02851   -111417.84   -110587.22    138.72976    198103.21  0.053810716 
   43200    294.02905   -111420.62   -110601.15    50.467155     198010.8  0.053835828 
   43300    280.71596   -111392.39   -110610.02    -199.4078    197916.66  0.053861436 
   43400    297.78121   -111443.98   -110614.04    44.547409    197819.78  0.053887812 
   43500    287.73299   -111417.02   -110615.09   -356.92309     197696.7  0.053921362 
   43600    292.33501    -111428.1   -110613.35    111.58163     197528.3  0.053967333 
   43700    293.37743   -111425.77   -110608.11   -202.44987    197332.52  0.054020875 
   43800    286.41922   -111399.68   -110601.42     143.4911    197096.89  0.054085456 
   43900    294.66565   -111413.17   -110591.92    -333.5567    196853.72  0.054152269 
   44000    303.48561   -111429.07   -110583.24   -437.03831    196631.65  0.054213426 
   44100    301.42832   -111416.33   -110576.23   -191.57714    196422.33  0.054271199 
   44200    294.18268   -111390.66   -110570.76   -228.11019    196199.24  0.054332909 
   44300    309.79033   -111430.35   -110566.95   -177.49224     195941.2  0.054404462 
   44400    302.05091   -111407.65   -110565.82     385.7511    195658.43  0.054483087 
   44500    302.89332   -111411.73   -110567.55   -225.72218    195352.83  0.054568318 
   44600    305.77252   -111420.41   -110568.21    42.918745    195020.99   0.05466117 
   44700    295.82619   -111394.44   -110569.95    67.474224    194711.56  0.054748035 
   44800    308.32305   -111430.15   -110570.84    21.709101    194438.29   0.05482498 
   44900     300.7485   -111409.81    -110571.6    394.51498    194237.16  0.054881752 
   45000    302.46104   -111417.63   -110574.66    39.227864    194115.71  0.054916088 
   45100    294.43912   -111398.35   -110577.73    174.36991    194021.61  0.054942723 
   45200    297.61005   -111410.28   -110580.82   -164.11395       193926  0.054969809 
   45300    298.57611   -111416.06   -110583.91    -58.52432       193798  0.055006115 
   45400    312.53207    -111456.5   -110585.46     21.97719     193685.4  0.055038094 
   45500     296.6338   -111412.73      -110586   -232.10642    193622.48   0.05505598 
   45600    300.27346   -111422.38    -110585.5    350.95354    193612.22  0.055058897 
   45700    286.22262   -111383.55   -110585.83    68.592489    193649.11  0.055048409 
   45800    301.74119    -111426.2   -110585.23   -21.155772    193699.63  0.055034051 
   45900    293.06547   -111402.93   -110586.14   -202.50535    193731.86  0.055024896 
   46000    296.48653   -111415.22    -110588.9   -143.51376    193713.26   0.05503018 
   46100    299.66392   -111429.79    -110594.6   -351.11066     193667.4  0.055043211 
   46200    302.27303    -111444.5   -110602.05     75.06417    193609.43  0.055059692 
   46300    306.28465   -111464.71   -110611.08    -218.7494     193562.8  0.055072956 
   46400     278.5397   -111395.15   -110618.84    32.461559    193529.15  0.055082531 
   46500    293.52399   -111442.12   -110624.05   -79.575607       193490  0.055093677 
   46600    284.45203   -111420.45   -110627.66    -275.8321    193436.25  0.055108984 
   46700    292.60976   -111444.78   -110629.26   -23.889146       193331  0.055138986 
   46800    292.43265   -111442.63    -110627.6   -203.51423    193175.86   0.05518327 
   46900    305.70639   -111475.67   -110623.64    101.07296    193043.75  0.055221034 
   47000    297.17636   -111445.15   -110616.91   -182.80105    192984.31  0.055238042 
   47100    294.12344   -111428.14   -110608.41    177.04757     192942.9  0.055249896 
   47200    297.81515   -111428.87   -110598.85   -90.322836    192870.35  0.055270679 
   47300    300.62228   -111425.51   -110587.66    209.01072    192753.52   0.05530418 
   47400    318.51455    -111463.8   -110576.09   -168.48157    192645.81    0.0553351 
   47500    300.78794   -111405.03   -110566.72   -508.93821    192545.66  0.055363883 
   47600     307.9924   -111418.42   -110560.02   0.75003131     192445.7   0.05539264 
   47700    310.06439   -111419.63   -110555.46    171.12745    192324.44  0.055427566 
   47800    302.10015   -111394.72   -110552.75    486.53555    192210.71  0.055460362 
   47900    307.99879   -111410.09   -110551.68    60.454216    192108.68  0.055489817 
   48000     311.4935   -111420.76   -110552.61   -87.964222    192018.33  0.055515927 
   48100    317.61734   -111442.69   -110557.47   -288.91423    191920.69  0.055544168 
   48200    303.18128   -111412.64   -110567.66    468.73032    191814.73  0.055574851 
   48300    298.70517   -111416.38   -110583.87    139.11026    191693.69  0.055609943 
   48400    292.63539   -111419.81   -110604.22    349.04806    191530.91  0.055657206 
   48500     296.2945   -111447.49    -110621.7     374.6424    191389.21  0.055698415 
   48600    288.95504   -111437.92   -110632.59   -364.82344    191285.48  0.055728618 
   48700    287.61451   -111439.97   -110638.38    197.88626     191210.9  0.055750355 
   48800     282.9032   -111428.24   -110639.78    17.244287    191174.48  0.055760975 
   48900    300.83686   -111476.84   -110638.39   -353.11177    191136.16  0.055772154 
   49000    297.18597   -111462.64   -110634.36    -226.5689    191087.88  0.055786244 
   49100    286.95803   -111428.72   -110628.95   -378.88603    191032.84  0.055802318 
   49200    286.36052    -111420.9    -110622.8    514.34824    190968.82  0.055821025 
   49300    295.39706   -111437.92   -110614.64    164.12532    190897.32  0.055841934 
   49400    305.52918   -111455.78   -110604.25   -308.70935    190827.49  0.055862367 
   49500    301.38727    -111435.5   -110595.52    929.27253    190761.87  0.055881582 
   49600    294.95381    -111409.5   -110587.45   -158.53211    190716.11  0.055894991 
   49700    297.85881   -111411.13   -110580.98     583.9143    190660.02  0.055911434 
   49800    311.64001    -111443.7   -110575.14    161.84088    190623.41  0.055922175 
   49900     306.4222      -111425   -110570.98    92.394019    190602.33  0.055928358 
   50000     305.1133    -111417.9   -110567.53   -282.52313    190593.66  0.055930902 
   50100    299.92249   -111402.23   -110566.33   -423.61091    190567.85  0.055938477 
   50200    295.01481    -111388.7   -110566.48   -587.10741    190508.55  0.055955889 
   50300      315.967   -111447.43   -110566.81     85.69588    190434.17  0.055977744 
   50400    303.62376   -111416.32   -110570.11    369.57738    190367.93  0.055997222 
   50500    294.09009   -111396.35    -110576.7   -56.523911    190290.96  0.056019873 
   50600    299.67562   -111426.53   -110591.32   -304.92788    190177.95  0.056053163 
   50700    292.98764   -111429.97   -110613.39   -42.466659    190050.25  0.056090826 
   50800    285.60427   -111428.83   -110632.83   -294.92814    189942.67  0.056122595 
   50900    291.26749   -111456.43   -110644.65    208.59329     189849.5  0.056150136 
   51000     302.9796   -111495.82    -110651.4   -157.17118    189760.35  0.056176517 
   51100    295.40029      -111479    -110655.7    293.86498    189684.76  0.056198902 
   51200    288.38641   -111461.07   -110657.32    15.403712    189613.45  0.056220037 
   51300    295.27787   -111478.96      -110656    302.32048    189517.66  0.056248454 
   51400    294.00331   -111469.87   -110650.47    208.60875    189432.14  0.056273847 
   51500    293.08184   -111459.41   -110642.58   -277.06925    189371.01  0.056292014 
   51600    280.97141   -111415.04   -110631.96    329.62253    189314.16  0.056308918 
   51700    289.87578   -111426.77   -110618.87    147.68175    189264.16  0.056323793 
   51800    293.23892   -111422.87    -110605.6   -364.31154     189234.9  0.056332502 
   51900    295.66619   -111419.81   -110595.77   -57.446411    189224.25  0.056335672 
   52000    298.48718   -111420.62   -110588.72    65.344642    189204.19  0.056341644 
   52100    306.05212   -111435.63   -110582.65   -128.30982    189154.01  0.056356593 
   52200    298.01156   -111410.62   -110580.04      240.886     189108.1  0.056370273 
   52300    305.48557    -111430.1   -110578.69   -261.74798    189069.36  0.056381824 
   52400    293.65683    -111396.5   -110578.06   -44.534719    189031.45   0.05639313 
   52500    298.04141   -111409.16    -110578.5   -320.78749    188942.71  0.056419618 
   52600    298.23955    -111412.2   -110580.99   -182.74511    188804.58  0.056460895 
   52700    302.81592   -111427.11   -110583.15    239.49907    188683.26  0.056497197 
   52800    294.07607   -111407.52   -110587.92    429.38205     188626.8  0.056514107 
   52900     292.3052   -111408.54   -110593.87    99.156846    188581.43  0.056527703 
   53000    299.55203   -111435.32   -110600.46    124.03802    188476.64  0.056559134 
   53100    297.82461   -111438.89   -110608.84    42.469068    188339.78  0.056600233 
   53200    290.14326   -111428.64   -110619.99    484.19712    188172.95  0.056650412 
   53300    296.39564   -111458.61   -110632.54   -186.65999    188025.92  0.056694712 
   53400    276.06672   -111414.52   -110645.11    499.54344    187892.81  0.056734876 
   53500     273.9958   -111418.22   -110654.58    -311.9431    187792.52  0.056765176 
   53600     286.2682   -111455.94   -110658.09   -82.437043    187706.94  0.056791055 
   53700    289.05492   -111461.71    -110656.1    114.19845    187619.94  0.056817389 
   53800    294.57817    -111469.5   -110648.49    299.29321    187540.84  0.056841355 
   53900    303.18493   -111480.57   -110635.58    569.54218    187496.84  0.056854695 
   54000    297.85037   -111449.24   -110619.11   -345.71422    187451.52  0.056868438 
   54100    289.10043   -111407.76   -110602.02    316.84706    187388.68   0.05688751 
   54200    293.61443   -111404.89   -110586.57   -39.508221    187298.29  0.056914962 
   54300    299.11095   -111410.08   -110576.44    215.90282    187175.23  0.056952382 
   54400     304.4495   -111418.53   -110570.01   -366.26025    187037.19  0.056994417 
   54500    294.33476   -111389.15   -110568.83    31.322465     186896.9  0.057037196 
   54600    315.67373   -111449.17   -110569.37    558.81831    186780.31    0.0570728 
   54700    305.38961      -111424   -110572.86   -542.12516    186704.55  0.057095958 
   54800    303.74337    -111423.6   -110577.05    393.95464    186649.76  0.057112719 
   54900    304.63272   -111432.06   -110583.03    -588.8025    186591.07  0.057130684 
   55000    306.12129    -111443.4   -110590.23   -391.75242    186513.87  0.057154331 
   55100    309.12078   -111461.25   -110599.71    502.16667    186435.85  0.057178249 
   55200     307.1982   -111465.18      -110609   -79.147992    186375.79  0.057196675 
   55300    295.81997   -111442.86   -110618.39   -263.76014    186340.11  0.057207625 
   55400    304.24986    -111472.8   -110624.84   -267.95891    186310.45  0.057216734 
   55500    287.71228   -111431.36   -110629.49    79.285365    186287.48  0.057223788 
   55600    282.77453    -111419.5   -110631.39   -74.423196    186251.04  0.057234983 
   55700    294.15326   -111449.22    -110629.4    173.77643    186162.79  0.057262118 
   55800    304.13547   -111471.06   -110623.41   -272.79144    186031.07  0.057302661 
   55900    290.97652   -111424.32   -110613.35   -76.014822    185891.15  0.057345794 
   56000    299.19637   -111431.55   -110597.67   -169.55921    185786.34  0.057378144 
   56100    310.27997   -111440.64   -110575.87   -169.97593    185706.77  0.057402729 
   56200    309.08342   -111418.75   -110557.32    212.72256    185635.72  0.057424698 
   56300    298.05671   -111377.47   -110546.77    8.9946651    185561.63  0.057447628 
   56400    297.91119   -111372.76   -110542.46    18.655612    185487.03  0.057470731 
   56500    317.56391   -111426.43   -110541.36   -211.22912    185411.67  0.057494092 
   56600    309.49012      -111406   -110543.43   -177.67933    185340.73  0.057516096 
   56700    320.38561   -111441.16   -110548.23    276.58673    185279.07  0.057535237 
   56800    305.75953   -111408.39   -110556.22    389.01441    185261.41  0.057540722 
   56900    306.10898   -111418.53   -110565.39    181.71124     185273.6  0.057536935 
   57000    294.56715   -111395.24   -110574.26   -119.45934    185262.48  0.057540391 
   57100    300.77808   -111419.81   -110581.53    371.81236    185204.71  0.057558338 
   57200    289.98861   -111396.74   -110588.53    572.36479    185136.17  0.057579647 
   57300    287.74841   -111395.28   -110593.31   -289.43847    185058.37  0.057603854 
   57400    299.75037   -111432.06   -110596.63    159.87533    184966.21  0.057632555 
   57500    312.77749   -111470.65   -110598.92   -539.88413     184874.3  0.057661206 
   57600    307.48087   -111458.27   -110601.31    468.58229    184779.47    0.0576908 
   57700    286.41228   -111400.62   -110602.38    202.06671       184687  0.057719685 
   57800    294.27071   -111423.04   -110602.89   -533.08751     184595.8    0.0577482 
   57900    290.68776   -111413.79   -110603.63    31.017762    184474.99  0.057786018 
   58000    304.47707   -111452.22   -110603.63   -374.66343    184326.64  0.057832528 
   58100    304.10538   -111450.22   -110602.67    248.08574    184172.42  0.057880953 
   58200    306.60522   -111454.59   -110600.06    510.07031    184043.55  0.057921484 
   58300    291.01534   -111408.22   -110597.14   -87.794595    183939.78  0.057954161 
   58400     293.3745   -111408.68   -110591.03     -216.371    183860.41  0.057979178 
   58500    300.74033   -111420.43   -110582.25    140.62698    183792.78  0.058000513 
   58600    310.43033   -111437.74   -110572.55   -256.10707    183694.05  0.058031685 
   58700    309.04004   -111424.14   -110562.83   -13.714389    183559.52  0.058074218 
   58800    295.98724   -111380.74   -110555.81    191.10505    183422.38  0.058117636 
   58900    306.16341   -111404.62   -110551.33    217.75202    183287.44  0.058160426 
   59000    309.36651   -111410.24   -110548.02   -330.05821    183121.97  0.058212979 
   59100     311.5192   -111415.11   -110546.89     447.4974     182936.4   0.05827203 
   59200     303.5968   -111394.14      -110548    119.28463    182801.09  0.058315162 
   59300      311.625   -111422.53   -110554.01      132.013    182729.69  0.058337949 
   59400    297.57373   -111394.12   -110564.76    47.149816    182693.37  0.058349548 
   59500     296.9566   -111406.01   -110578.38   -38.924885    182651.11  0.058363047 
   59600    299.67031   -111427.86   -110592.66    84.693708    182583.95  0.058384515 
   59700    303.48607   -111451.06   -110605.23   -4.9530885    182514.49  0.058406733 
   59800    284.92354   -111407.97   -110613.87    161.19893    182468.65  0.058421408 
   59900    287.30534   -111419.23   -110618.49    164.45586    182447.62  0.058428143 
   60000    290.91127   -111431.47   -110620.69    348.12172    182436.91  0.058431573 
   60100    290.72728   -111429.87   -110619.59    97.035233    182423.11  0.058435992 
   60200    288.94602   -111421.54   -110616.23    -485.8647    182409.12  0.058440475 
   60300    295.65218   -111434.08   -110610.09   -79.882121    182366.36  0.058454175 
   60400    301.70314   -111443.91   -110603.05    101.92354    182315.61  0.058470447 
   60500    290.95973   -111408.92      -110598   -106.37835    182263.28  0.058487234 
   60600    297.66804   -111422.84   -110593.22    173.27079    182207.78  0.058505052 
   60700    303.72758   -111435.47   -110588.97   -144.98464    182157.34  0.058521251 
   60800    306.76976    -111440.7   -110585.72   -154.80915    182118.28  0.058533801 
   60900    301.89975   -111423.88   -110582.47   -50.135585    182099.76  0.058539755 
   61000    302.06911   -111421.42   -110579.53    54.158356    182080.57  0.058545926 
   61100    300.63436    -111415.5   -110577.62   -344.68184    182062.33  0.058551791 
   61200    297.93489   -111404.83   -110574.47   -90.486501    182009.47  0.058568796 
   61300    301.70299   -111414.13   -110573.27   -62.167256    181939.52  0.058591313 
   61400    302.44593    -111415.3   -110572.37   -272.05833    181890.51    0.0586071 
   61500    307.04562   -111427.15   -110571.39   -329.53992    181874.05  0.058612403 
   61600    292.94463   -111388.56   -110572.11     542.5996    181874.81  0.058612159 
   61700    297.60537    -111402.9   -110573.46   -345.63294    181884.89  0.058608912 
   61800    313.23883   -111448.66   -110575.64   -200.94817    181865.41  0.058615189 
   61900    309.92191   -111444.76   -110580.99     265.8607    181826.84  0.058627623 
   62000     296.2781   -111418.36   -110592.62   -15.055439    181783.65  0.058641553 
   62100    293.41525   -111429.74   -110611.97   -499.04253    181764.72  0.058647658 
   62200    297.22044   -111462.31   -110633.94   -97.715978    181759.19  0.058649444 
   62300    297.65297   -111479.02   -110649.44     94.38913     181749.2  0.058652668 
   62400    295.41813   -111481.37   -110658.02   -223.29126    181741.55  0.058655135 
   62500    281.07987   -111444.51   -110661.13     345.7955    181738.27  0.058656196 
   62600    296.61787   -111486.11   -110659.42     424.4789    181747.34  0.058653268 
   62700    288.31646   -111457.25    -110653.7    209.51802    181761.77  0.058648611 
   62800    284.80988   -111438.58    -110644.8   -95.990685    181779.33  0.058642947 
   62900     290.1169   -111440.99   -110632.42    57.881321    181792.08  0.058638833 
   63000    302.24637   -111463.46   -110621.08    778.61323    181822.39  0.058629058 
   63100    304.86422   -111459.34   -110609.67   -36.570115    181849.35  0.058620366 
   63200    302.03158    -111442.1   -110600.32    246.84986    181872.53  0.058612893 
   63300    294.15501    -111413.4   -110593.57    167.77202    181924.69  0.058596088 
   63400    301.73264   -111428.27   -110587.32    357.43152    182004.91  0.058570263 
   63500    300.47027   -111420.03   -110582.61   -774.37957    182072.64  0.058548476 
   63600    303.99546   -111426.87   -110579.62   -38.355037    182106.68   0.05853753 
   63700    298.27401   -111407.95   -110576.64   -147.27541    182129.24  0.058530281 
   63800     294.0985   -111393.79   -110574.12    276.62766    182132.81  0.058529131 
   63900    291.43787   -111383.47   -110571.22   -224.31729    182128.22  0.058530609 
   64000    314.47071   -111445.69   -110569.25   -579.26214    182119.71  0.058533343 
   64100    305.51737   -111420.16   -110568.66    360.36908    182101.94  0.058539053 
   64200    308.87417   -111429.85      -110569   -163.62082    182091.62  0.058542371 
   64300    300.19005   -111406.36   -110569.71    -25.72432    182064.91  0.058550962 
   64400    300.87985   -111410.06   -110571.49    15.476015    182020.63  0.058565205 
   64500    298.29045   -111406.81   -110575.46   -169.55478    181952.43  0.058587155 
   64600    306.02196   -111433.37   -110580.47   -331.24562    181895.11  0.058605618 
   64700    294.35384   -111409.21   -110588.83    -178.3807    181854.65  0.058618656 
   64800     300.2073   -111433.87   -110597.17    47.490501    181788.11  0.058640114 
   64900    298.74631   -111438.91   -110606.28    163.71223    181685.26  0.058673309 
   65000    290.40312   -111424.38   -110615.01   -52.650195    181566.52  0.058711678 
   65100    300.44401   -111457.79   -110620.44   -264.53939    181470.84  0.058742635 
   65200    296.39076   -111449.49   -110623.43   -60.723453    181412.89  0.058761399 
   65300    293.08026    -111442.4   -110625.57   -438.87344    181380.03  0.058772045 
   65400    286.86299    -111426.7   -110627.19    154.20354    181332.98  0.058787294 
   65500    292.16141   -111440.54   -110626.27   -403.11107     181267.3  0.058808594 
   65600     295.6017   -111445.52   -110621.66    283.19618    181158.46  0.058843926 
   65700    295.13862   -111435.59   -110613.02    11.059859    181038.08  0.058883055 
   65800    299.29471   -111432.74   -110598.59   -117.73864    180917.68  0.058922242 
   65900    303.01746    -111428.2   -110583.67    4.4407222    180783.89  0.058965848 
   66000    300.01393   -111407.14   -110570.98   -7.5342948    180647.52  0.059010361 
   66100    297.09434   -111389.79   -110561.77    432.79302     180527.1  0.059049724 
   66200    297.59495   -111385.27   -110555.86    55.016698    180458.02   0.05907233 
   66300    293.30531   -111369.52   -110552.06      -320.44     180417.1  0.059085725 
   66400    302.81916   -111395.07   -110551.09   -144.79849    180375.89  0.059099225 
   66500    308.85681   -111413.62   -110552.82    185.48992    180302.61  0.059123245 
   66600    315.82802   -111437.83    -110557.6    375.81466    180207.99  0.059154288 
   66700    308.60718   -111423.87   -110563.77   -573.60178    180127.11  0.059180851 
   66800    305.80911   -111424.34   -110572.03   -358.87086    180043.52  0.059208324 
   66900    295.82721   -111404.47   -110579.98   -312.14805    179980.33  0.059229113 
   67000    302.35839   -111429.99    -110587.3  -0.66030066    179911.72  0.059251701 
   67100    293.86815   -111412.56   -110593.53    137.48302    179813.13  0.059284189 
   67200    297.98974   -111427.68   -110597.17    255.72222    179699.82  0.059321568 
   67300    299.82472   -111436.39   -110600.77    349.40558    179601.95  0.059353894 
   67400    307.85551    -111461.1   -110603.09   -256.11173    179526.82  0.059378733 
   67500    294.68435   -111425.98   -110604.68    241.44473    179439.93  0.059407487 
   67600    296.69716   -111432.61    -110605.7      311.907    179377.34  0.059428217 
   67700    289.40056   -111411.72   -110605.15   -438.69935    179329.55  0.059444053 
   67800     302.4754   -111447.21    -110604.2   -233.27699    179268.07  0.059464438 
   67900    304.95361   -111450.92      -110601   -121.80431    179179.62  0.059493794 
   68000    304.48448   -111446.95   -110598.34    211.55343     179085.8  0.059524963 
   68100    298.82487   -111426.97   -110594.12   -212.04919    179022.95   0.05954586 
   68200    296.81378    -111416.8   -110589.56   -193.17538     178992.1  0.059556121 
   68300    301.23929   -111424.14   -110584.57   -235.75109     178983.8  0.059558885 
   68400    303.07323   -111424.45   -110579.76   -153.67494    178972.11  0.059562773 
   68500    309.95502   -111439.83   -110575.97     59.66686    178930.83  0.059576516 
   68600    306.61109   -111426.73   -110572.18    48.736537    178883.69  0.059592217 
   68700    312.38783   -111441.46   -110570.81   -496.82632    178847.64  0.059604227 
   68800    301.14773   -111409.88   -110570.56    147.33342    178784.14  0.059625396 
   68900    293.10162   -111388.18   -110571.29   -399.22427    178702.97  0.059652482 
   69000    299.78096   -111409.46   -110573.95    170.05668    178614.17  0.059682137 
   69100    302.29107   -111420.97   -110578.47    271.13619    178567.12  0.059697861 
   69200    302.20844   -111426.83   -110584.56   -273.00039    178551.48  0.059703093 
   69300    301.86141   -111433.71   -110592.41    -263.3432    178535.16   0.05970855 
   69400     301.2189   -111440.01    -110600.5    251.80198    178512.38  0.059716169 
   69500    303.77742   -111454.72   -110608.07     262.1025    178502.01  0.059719638 
   69600    292.52029   -111432.67    -110617.4    252.44726    178483.95  0.059725679 
   69700     299.4505   -111460.16   -110625.58   -102.00104    178440.64  0.059740178 
   69800    294.02876   -111451.02   -110631.55    194.04829    178386.02  0.059758469 
   69900    297.15052   -111464.54   -110636.37   -392.63396    178328.16  0.059777856 
   70000    295.11511   -111461.23   -110638.72    181.10319    178267.23   0.05979829 
   70100    301.36367   -111478.84   -110638.92    325.86887    178212.44  0.059816673 
   70200    290.79255   -111447.57   -110637.11    114.19536    178156.75  0.059835371 
   70300    295.78697   -111455.89   -110631.52    544.19701    178097.22  0.059855374 
   70400    294.95561    -111445.2   -110623.14    174.68529    178018.94  0.059881692 
   70500    289.26603   -111416.43   -110610.23   -298.29042    177953.55  0.059903697 
   70600    302.66301   -111437.77   -110594.23    363.49348    177904.03  0.059920369 
   70700    305.14887    -111429.1   -110578.63    235.09887    177884.18  0.059927056 
   70800    301.17876   -111406.84   -110567.44   -98.528665    177872.29  0.059931061 
   70900    302.66724   -111403.37   -110559.82   -118.34431    177874.07  0.059930462 
   71000    315.07343   -111434.17   -110556.04    201.18388    177879.22  0.059928729 
   71100    300.78824   -111393.85   -110555.54   -383.11982    177895.97  0.059923084 
   71200    297.69152   -111386.11   -110556.42    309.41653    177918.73  0.059915418 
   71300    295.31684   -111380.21   -110557.14   -499.68154    177961.99  0.059900854 
   71400    317.98233   -111445.31   -110559.07    1.4623067    178010.84  0.059884419 
   71500    297.38602   -111390.47   -110561.64    206.54164    178055.31  0.059869459 
   71600    303.45044   -111409.98   -110564.24    341.90748    178121.76  0.059847125 
   71700    306.85451   -111422.02    -110566.8   -505.39696    178195.42  0.059822388 
   71800    305.22643   -111422.07   -110571.38   -253.76135    178274.08  0.059795993 
   71900    297.20727   -111405.21   -110576.88    597.35036    178366.47  0.059765019 
   72000    291.60624   -111395.82    -110583.1   -281.65274    178483.46  0.059725844 
   72100    300.56811   -111430.01   -110592.31   -60.377061    178580.75  0.059693305 
   72200     290.5101   -111416.49   -110606.82   -160.41543    178638.53  0.059673999 
   72300    298.66502   -111457.93   -110625.53   -113.46427    178681.59  0.059659617 
   72400    291.71822   -111456.12   -110643.08   -468.46443    178727.79  0.059644195 
   72500    291.07461   -111465.82   -110654.58    10.074323    178778.44  0.059627298 
   72600     289.3311   -111466.13   -110659.74   -169.91643    178791.49  0.059622946 
   72700    289.40666   -111465.82   -110659.23   -127.70372    178759.72  0.059633541 
   72800    291.80581   -111468.47   -110655.19    351.05096    178720.58  0.059646601 
   72900    284.50559    -111443.1   -110650.17    393.43397    178688.73  0.059657233 
   73000    287.86176   -111443.84   -110641.55   -323.14109    178656.02  0.059668156 
   73100    277.92478   -111406.46   -110631.87   -127.81483    178633.92  0.059675538 
   73200    289.03473    -111426.7   -110621.14    375.36049    178634.86  0.059675226 
   73300    290.95393   -111420.68   -110609.78    498.58042    178623.93  0.059678875 
   73400    297.49775   -111429.87   -110600.72   -232.15806    178573.93  0.059695586 
   73500      293.732   -111410.03   -110591.38    100.67447    178493.76  0.059722399 
   73600     299.3439    -111417.7   -110583.41    456.39795    178405.23  0.059752033 
   73700    302.09665   -111418.44   -110576.48    53.119685    178311.29  0.059783514 
   73800    294.32344   -111390.58   -110570.28    21.995676    178212.02  0.059816813 
   73900     299.4584   -111398.37   -110563.77   -301.17522    178115.03  0.059849386 
   74000    302.49412   -111401.43   -110558.36    -200.8064    178023.79  0.059880062 
   74100    300.69462   -111393.42   -110555.37    439.42531     177952.4  0.059904082 
   74200    307.92391   -111411.61   -110553.41    483.20051    177907.94  0.059919055 
   74300    310.80775   -111420.48   -110554.24   -330.60231    177884.72  0.059926875 
   74400    302.87002   -111402.54   -110558.43   -82.275977    177868.93  0.059932196 
   74500    305.82794   -111420.84   -110568.48   -139.10891    177847.72  0.059939341 
   74600    312.98298   -111456.55   -110584.24    556.55811    177807.05  0.059953052 
   74700    296.18315    -111425.8   -110600.32    564.69348    177758.75  0.059969341 
   74800    303.08909   -111458.19   -110613.46   -132.37264    177697.76  0.059989925 
   74900    293.93521   -111442.36   -110623.15   -94.157998    177617.93  0.060016889 
   75000    295.06431    -111449.9   -110627.54   -307.67716    177521.28  0.060049562 
   75100    295.74804   -111452.54   -110628.28    591.15918    177425.62  0.060081939 
   75200    289.41144   -111433.65   -110627.05   -250.27178    177357.39  0.060105053 
   75300    290.66505   -111433.81   -110623.71    -246.2413    177307.37  0.060122011 
   75400    299.43049    -111452.5   -110617.97   -124.47984    177277.33  0.060132196 
   75500    290.35106   -111421.81   -110612.59   -45.588649    177249.26   0.06014172 
   75600    289.51137   -111413.71   -110606.83   -854.96176    177211.65  0.060154483 
   75700    301.83153   -111442.17   -110600.95    285.51808    177139.48  0.060178992 
   75800    304.46393   -111444.61   -110596.05    189.40919    177055.39  0.060207573 
   75900    299.21997   -111424.25   -110590.31   -463.45768    177005.06  0.060224691 
   76000    301.05332   -111424.01   -110584.96    -80.83937    176994.53  0.060228277 
   76100    300.54956   -111419.97   -110582.32    140.86821    176998.19   0.06022703 
   76200    302.66587   -111422.86   -110579.32    41.140345    176976.51  0.060234407 
   76300    302.46132   -111419.57    -110576.6   -86.770639    176938.69  0.060247283 
   76400    298.87354   -111405.59   -110572.61    662.29381     176921.1  0.060253273 
   76500    304.93247   -111418.85   -110568.98   -242.36494    176943.66   0.06024559 
   76600    304.56728   -111412.26   -110563.42   -151.08377    176980.78  0.060232957 
   76700    304.48503    -111409.5   -110560.89    42.337324    177022.95  0.060218605 
   76800    315.89745   -111440.11   -110559.69   -451.74511    177043.37   0.06021166 
   76900    316.46067   -111441.47   -110559.48    283.69171    177075.07  0.060200882 
   77000    303.68251    -111409.8   -110563.42      201.702    177124.26  0.060184165 
   77100    306.61027   -111423.54      -110569    8.6360671    177168.36  0.060169182 
   77200    307.89571   -111435.99   -110577.86    -178.0867     177216.9  0.060152703 
   77300    303.06975    -111432.6   -110587.93    13.751712    177258.27  0.060138663 
   77400    299.76331   -111433.33   -110597.87     442.8649    177289.44  0.060128091 
   77500     296.7595   -111433.25   -110606.17   -401.36125     177305.1   0.06012278 
   77600    299.92306   -111448.43   -110612.52   -487.42733    177315.04  0.060119409 
   77700    300.67057   -111455.11   -110617.12   -384.68767    177342.74  0.060110017 
   77800    293.37196    -111437.1   -110619.45   -211.99447    177366.63  0.060101923 
   77900     284.9775   -111413.85    -110619.6    219.33836    177375.18  0.060099026 
   78000    289.97622   -111424.15   -110615.97   -303.88921    177357.96  0.060104861 
   78100    290.59065   -111419.04   -110609.15   -90.732631    177337.88  0.060111666 
   78200    289.31383   -111404.46   -110598.12   -240.95618    177326.86    0.0601154 
   78300    307.19858   -111441.02   -110584.84   -69.915889    177315.44  0.060119273 
   78400    306.15668   -111422.92   -110569.64    25.731937    177294.52  0.060126368 
   78500    308.45084    -111417.9   -110558.23    413.28789    177268.18  0.060135301 
   78600    311.62558   -111419.64   -110551.12    106.77778    177259.52  0.060138238 
   78700    302.58107    -111391.9   -110548.59   -174.22498    177254.53  0.060139932 
   78800    308.26123   -111407.92   -110548.78   -205.75062    177256.35  0.060139314 
   78900    301.97966   -111390.92   -110549.28    510.73391    177257.49  0.060138927 
   79000    306.83968   -111406.53   -110551.35   -151.39898    177285.38  0.060129466 
   79100    304.86374    -111403.3   -110553.63    256.93997    177309.24  0.060121375 
   79200    307.02835   -111412.67   -110556.96   -184.05781    177313.92   0.06011979 
   79300    304.83923   -111410.81   -110561.21    202.56226     177286.4  0.060129122 
   79400    314.46029    -111441.6   -110565.18   -200.94415    177230.45  0.060148102 
   79500    310.97606   -111437.28   -110570.57    -84.55034    177152.51  0.060174567 
   79600    303.20683   -111421.38   -110576.32    265.41503    177104.35   0.06019093 
   79700    297.37386   -111410.32   -110581.53   -691.23133    177042.16  0.060212072 
   79800    292.05242   -111398.75   -110584.78    39.576134    176965.06  0.060238305 
   79900    301.02066   -111425.43   -110586.47    249.03702     176882.5  0.060266422 
   80000    307.82824   -111446.71   -110588.78   -99.449133    176816.68  0.060288856 
   80100    297.58613    -111421.5   -110592.11    449.55178    176771.35  0.060304315 
   80200    295.40952   -111417.06   -110593.74   -361.39354    176760.89  0.060307883 
   80300    293.95406   -111412.95   -110593.68   -115.84402    176752.04  0.060310905 
   80400    298.40067   -111425.32   -110593.66   -69.168849    176714.34  0.060323769 
   80500     298.7969   -111425.05   -110592.29    817.51832    176663.42  0.060341159 
   80600    291.34019   -111401.13   -110589.15    207.04166    176612.38  0.060358597 
   80700    300.41656   -111423.98    -110586.7    18.577289     176575.6  0.060371169 
   80800    304.86064   -111433.44   -110583.77    1.0535655    176527.87  0.060387491 
   80900    319.16629   -111470.75   -110581.22   -255.82747    176487.46  0.060401319 
   81000    297.53756   -111408.64   -110579.39    151.69186    176496.19  0.060398332 
   81100    293.99658   -111397.82   -110578.43   -271.36247    176547.39  0.060380816 
   81200    294.22507   -111398.24   -110578.21    128.68045    176582.81  0.060368705 
   81300    299.81316   -111413.55   -110577.95    712.57094    176611.16  0.060359015 
   81400    306.37653   -111432.94   -110579.05    -281.7636    176642.56  0.060348285 
   81500    307.02524   -111437.32   -110581.63   -363.19377    176692.18  0.060331335 
   81600    294.32095   -111407.31   -110587.02    484.50221    176753.07  0.060310554 
   81700    296.20274   -111421.26   -110595.72    414.88269    176820.81  0.060287448 
   81800    298.04843   -111435.34   -110604.66   -629.61192     176878.1   0.06026792 
   81900      294.817   -111435.75   -110614.08     371.0392    176912.61  0.060256166 
   82000    292.80534   -111438.41   -110622.35    -172.8838    176946.52  0.060244617 
   82100    290.67407   -111438.01   -110627.89    266.39389    176953.84  0.060242124 
   82200    285.84874      -111429   -110632.32    12.137254    176949.27  0.060243681 
   82300     306.7196   -111489.47   -110634.62   -394.92747    176920.59  0.060253446 
   82400    294.68162      -111456   -110634.71   -30.874644    176881.11  0.060266894 
   82500    295.47065   -111457.41   -110633.92    -293.7413    176817.65  0.060288525 
   82600    288.27366   -111435.34   -110631.91   -255.15315     176741.6  0.060314468 
   82700    291.16193   -111437.84   -110626.36   -405.78365    176642.96  0.060348146 
   82800    295.96281   -111442.35   -110617.49    168.58339    176519.15  0.060390476 
   82900    287.33976   -111405.63    -110604.8   -249.12071     176392.8  0.060433734 
   83000    288.48651   -111393.16   -110589.13    72.543206    176264.23  0.060477814 
   83100    296.14942   -111401.44   -110576.06   -245.52873    176140.93  0.060520151 
   83200    309.28326   -111429.23   -110567.24   -35.418803    176017.16  0.060562704 
   83300     312.1938    -111430.5    -110560.4   -48.153894    175917.37  0.060597058 
   83400    305.86887   -111408.58   -110556.11    101.20354    175856.64  0.060617985 
   83500    305.23381   -111406.04   -110555.34   -296.48759    175826.42  0.060628405 
   83600    304.40314   -111405.76   -110557.37    88.861269    175792.29  0.060640176 
   83700    306.96797   -111417.34    -110561.8      149.845     175721.5  0.060664603 
   83800    298.40802   -111396.33   -110564.65   -178.42319     175642.3  0.060691959 
   83900     301.4584   -111407.97   -110567.79    261.56466    175557.94  0.060721122 
   84000    296.15956   -111397.28   -110571.86   -52.127742    175487.45  0.060745513 
   84100     296.7517   -111403.65   -110576.58    -3.032349    175413.56  0.060771102 
   84200    288.71928   -111385.37   -110580.69    -319.2918    175359.48  0.060789842 
   84300    306.01818   -111438.35   -110585.46    174.11736    175312.52  0.060806128 
   84400    285.80761   -111390.16    -110593.6    -74.53527    175263.07  0.060823283 
   84500    296.06304   -111430.93   -110605.78    203.52195    175195.97  0.060846577 
   84600    301.60638   -111462.43   -110621.84    243.98006    175130.36  0.060869374 
   84700    289.19232   -111444.96   -110638.96  -0.40290534    175068.78  0.060890786 
   84800    284.38454   -111443.46   -110650.86   -92.610018     175012.8  0.060910262 
   84900    292.60723   -111473.51      -110658    48.230804    174949.99  0.060932129 
   85000    288.41449   -111464.18   -110660.35    88.771895    174897.08  0.060950564 
   85100    287.86569   -111461.27   -110658.97    156.29494    174850.08  0.060966945 
   85200    288.90264   -111458.97   -110653.78    354.55692    174810.67   0.06098069 
   85300    294.95504   -111468.19   -110646.13    344.15006    174760.17  0.060998312 
   85400    290.80259   -111447.29    -110636.8   -37.337449     174717.4  0.061013244 
   85500     297.1621   -111453.95   -110625.74    218.37092    174678.64  0.061026784 
   85600    302.29872   -111456.51   -110613.99    98.313191    174634.23  0.061042302 
   85700    304.79696   -111453.51   -110604.02    188.63634    174606.76  0.061051904 
   85800    298.11056   -111429.21   -110598.36    432.10337    174595.11   0.06105598 
   85900    297.72949   -111425.29    -110595.5   -18.119364    174611.18  0.061050358 
   86000    295.26259   -111415.86   -110592.95    485.41784    174633.75   0.06104247 
   86100    309.01918   -111452.02   -110590.76    45.006963    174640.23  0.061040204 
   86200    304.31554   -111438.72   -110590.57    371.15391    174614.85  0.061049078 
   86300    296.73197   -111416.41    -110589.4    407.80232    174599.15  0.061054566 
   86400    297.20339   -111417.77   -110589.45    314.50555    174619.44  0.061047472 
   86500     301.1278   -111428.88   -110589.62     -219.689    174669.79  0.061029873 
   86600    300.52355    -111427.5   -110589.92   -32.490387    174719.11  0.061012647 
   86700    306.58321   -111444.09   -110589.62   -121.19913    174781.99  0.060990696 
   86800     300.5725   -111428.04   -110590.33    55.846077    174861.94  0.060962812 
   86900     295.2814   -111415.43   -110592.46     240.0024     174920.5  0.060942403 
   87000    308.25712   -111454.07   -110594.94   -200.50557    174961.23  0.060928216 
   87100    296.51873    -111424.2   -110597.78    -119.1269    175002.38   0.06091389 
   87200    299.41585   -111436.55   -110602.06   -257.87114    175050.97  0.060896981 
   87300    298.38734   -111440.86   -110609.24   -202.74873    175086.98  0.060884456 
   87400    292.96864   -111434.21   -110617.69   -151.42527    175097.85  0.060880674 
   87500    297.52639   -111454.13   -110624.91   -466.61188    175093.98  0.060882022 
   87600    286.97592   -111432.03   -110632.21    259.50166     175061.5  0.060893316 
   87700     283.0958   -111426.06   -110637.06   -676.16272    175013.29  0.060910089 
   87800     293.3527    -111456.1   -110638.51    402.22125    174937.52  0.060936472 
   87900    291.65081   -111450.77   -110637.93   -274.36027    174867.49  0.060960876 
   88000    286.54564   -111432.01   -110633.39    201.22758    174806.35  0.060982197 
   88100    298.55204   -111457.64   -110625.56   -144.90177    174751.84   0.06100122 
   88200    308.15625   -111474.55    -110615.7    554.95007    174701.23  0.061018892 
   88300    308.68548   -111464.95   -110604.62    29.392326    174668.07  0.061030474 
   88400    291.92405   -111405.01    -110591.4   -13.506508    174627.24  0.061044743 
   88500    302.12114    -111422.3   -110580.27    -153.6133    174559.77  0.061068338 
   88600    305.21732   -111420.28   -110569.62   -81.803581    174450.07  0.061106743 
   88700    298.46244   -111394.77   -110562.94   -280.21437    174328.56  0.061149334 
[...]
  978700    296.67288   -111689.32   -110862.47   -4245.5649    9376.6928    1.1368694 
  978800    294.61162   -111672.23   -110851.13   -5946.8838    9365.6605    1.1382086 
  978900    287.77496   -111640.42   -110838.38   -6770.3244     9353.995    1.1396281 
  979000     296.6214    -111651.4    -110824.7   -1927.4494    9342.2929    1.1410556 
  979100    295.31088   -111635.04      -110812    -2604.674    9330.7839     1.142463 
  979200    304.34824   -111651.14    -110802.9    2188.3227    9317.6999    1.1440673 
  979300    296.17878   -111620.78   -110795.31    1218.2161    9304.1426    1.1457343 
  979400    304.22081   -111637.15   -110789.27   -1122.7892    9291.0465    1.1473493 
  979500    311.56277   -111653.19   -110784.85    3810.6926    9279.3058     1.148801 
  979600    303.33155   -111628.19   -110782.79   -1847.3858    9268.2745    1.1501683 
  979700    306.74912   -111637.53    -110782.6    9990.6933    9255.6416    1.1517381 
  979800    306.63458   -111637.52   -110782.91    -5484.581    9242.0946    1.1534263 
  979900    303.41387   -111631.47   -110785.84   -72.542139    9228.7041    1.1550999 
  980000    309.56729   -111652.74   -110789.96    3094.2913    9217.1459    1.1565484 
  980100    306.68575   -111651.69   -110796.94    8916.1179    9205.2344     1.158045 
  980200    305.94859   -111658.85   -110806.16   -1701.9774    9193.7761    1.1594882 
  980300      302.759   -111664.91    -110821.1    3299.5675    9181.9408    1.1609828 
  980400    298.65529   -111671.79   -110839.42    4994.0557    9170.0205     1.162492 
  980500    291.36714   -111665.51   -110853.45    2051.7546    9158.0999    1.1640051 
  980600     290.5081   -111672.82   -110863.16    1604.8054    9147.2015     1.165392 
  980700    290.02555   -111673.78   -110865.46    5986.4929    9137.5279    1.1666258 
  980800    288.15969   -111668.03   -110864.92    6423.0861    9129.7945    1.1676139 
  980900    291.87481   -111676.96   -110863.49   -4491.5685    9122.4706    1.1685514 
  981000    294.99321   -111681.12   -110858.95   -1156.0214    9115.0245    1.1695059 
  981100    291.54899   -111666.71   -110854.15   -4150.3553    9108.0583    1.1704004 
  981200    301.86865   -111689.27   -110847.94   -6514.2436    9102.2401    1.1711486 
  981300    296.89181   -111669.17   -110841.72    4882.6894    9097.3084    1.1717834 
  981400    295.02314   -111658.72   -110836.47    3930.1706    9093.8555    1.1722284 
  981500    304.01539   -111677.63   -110830.32   -2071.9184    9091.3224     1.172555 
  981600    293.81021   -111642.72   -110823.85    2564.3535    9089.4641    1.1727947 
  981700    286.34839   -111615.48   -110817.41    8301.3059    9088.1703    1.1729617 
  981800    299.81481   -111645.04   -110809.44    1949.9102    9088.3058    1.1729442 
  981900    294.57229   -111624.24   -110803.25   -6185.3608     9089.973     1.172729 
  982000    309.14834   -111658.58   -110796.97    16380.801    9092.7107    1.1723759 
  982100    310.66422   -111658.52   -110792.68   -2228.0277    9096.3206    1.1719107 
  982200    304.19002   -111637.88   -110790.09    249.48567    9098.9764    1.1715686 
  982300    295.84972   -111614.95    -110790.4    5503.4152    9101.7634    1.1712099 
  982400    304.92692   -111642.56   -110792.71   -1739.7594    9105.0968    1.1707811 
  982500    298.79708   -111628.77   -110796.01    1697.9149    9108.6803    1.1703205 
  982600    304.81732   -111648.15    -110798.6    984.42808    9111.7347    1.1699282 
  982700    302.67336   -111644.69   -110801.12    1230.8745    9114.2396    1.1696067 
  982800    313.63736   -111676.33   -110802.21     6038.632    9117.0794    1.1692424 
  982900    308.70567   -111666.83   -110806.45   -3753.9218    9120.3032     1.168829 
  983000    292.99019   -111627.56   -110810.98    -4257.465    9122.8717       1.1685 
  983100    301.83982   -111657.23   -110815.98    7795.4144    9124.0992    1.1683428 
  983200    302.46473   -111665.17   -110822.19   -991.52687    9126.0583     1.168092 
  983300    294.46746   -111647.63   -110826.94   -1278.9399    9129.1217       1.1677 
  983400    289.52447   -111639.32    -110832.4    1163.7783    9131.2961    1.1674219 
  983500    292.29939   -111650.17   -110835.52   -4386.7903    9132.5863     1.167257 
  983600    285.02067   -111630.34   -110835.97   -3050.9886     9133.127    1.1671879 
  983700    307.31155   -111689.96   -110833.47    4132.0092    9135.2254    1.1669198 
  983800    307.65095   -111685.74    -110828.3    1036.1315    9139.5204    1.1663714 
  983900    315.27034   -111697.07   -110818.39    6486.4984    9145.6017    1.1655959 
  984000    308.55096   -111667.83   -110807.88   -5227.8028    9152.8276    1.1646756 
  984100    305.20701   -111647.86   -110797.23   -5216.0851     9159.618    1.1638122 
  984200    302.97504   -111632.52   -110788.11   -6239.0163    9165.4818    1.1630676 
  984300    300.01196   -111616.25    -110780.1    5505.3895    9169.0015    1.1626212 
  984400    304.71733   -111626.18   -110776.92      11026.7    9173.5101    1.1620498 
  984500    305.51315   -111627.28   -110775.79    1772.0356    9181.6926    1.1610142 
  984600    308.78739   -111638.15   -110777.54    -3306.999    9192.2854    1.1596763 
  984700    298.65353   -111613.01   -110780.65   -652.59553    9203.4228    1.1582729 
  984800    297.60358   -111615.76   -110786.32    6284.4937    9213.8004    1.1569683 
  984900    312.71706   -111666.66    -110795.1   -2480.8001    9223.8455    1.1557084 
  985000    297.08156   -111634.91   -110806.93   -526.12975    9232.0836    1.1546771 
  985100    297.34091   -111648.49   -110819.78    128.68244     9238.668    1.1538541 
  985200     292.2695   -111645.89   -110831.32   -5178.8644    9244.6013    1.1531136 
  985300    284.99964   -111634.32   -110840.01    -6379.462    9251.3165    1.1522766 
  985400    292.48047   -111659.35   -110844.19    7477.7084    9257.5041    1.1515064 
  985500    287.18528   -111645.38   -110844.98    5959.7992    9262.8458    1.1508424 
  985600    290.41049   -111652.85   -110843.46    4495.0216    9268.4019    1.1501525 
  985700    294.44469    -111658.8   -110838.16   -1314.0343    9276.0328    1.1492063 
  985800    296.27385   -111658.29   -110832.56    5936.2763    9285.5794    1.1480248 
  985900    286.59081   -111623.33   -110824.59    1718.8244    9296.0676    1.1467295 
  986000    289.58783    -111622.4   -110815.31    6332.2376    9305.0748    1.1456195 
  986100    304.93075   -111655.66   -110805.81    154.12882    9312.5794    1.1446963 
  986200    308.50248   -111657.74   -110797.93    663.44622    9320.1779    1.1437631 
  986300    310.41853   -111656.88   -110791.72    3524.2474    9329.1881    1.1426584 
  986400    301.27242   -111627.35   -110787.68   -4103.4235    9338.5018    1.1415188 
  986500    302.85554   -111629.71   -110785.63   -5899.9095    9345.7097    1.1406384 
  986600    304.43259   -111632.58   -110784.11   -8291.8209    9350.0672    1.1401068 
  986700    299.60652   -111620.35   -110785.33   -4705.0965         9352    1.1398712 
  986800    309.74203   -111650.29   -110787.02    5379.6158    9353.5568    1.1396815 
  986900    304.29857   -111637.19   -110789.09   -8240.0322    9355.9336    1.1393919 
  987000    310.79011   -111657.65   -110791.46   -571.28647     9357.054    1.1392555 
  987100    296.49793   -111622.44   -110796.08   -10536.514    9356.4255     1.139332 
  987200    296.33918   -111626.53   -110800.62   -4406.3872    9353.4115    1.1396992 
  987300    309.20163   -111667.72   -110805.95    12501.621    9349.3903    1.1401894 
  987400     297.1207   -111639.84   -110811.75   -12293.944    9345.6971    1.1406399 
  987500    301.17887   -111658.32   -110818.91     15772.69    9341.6972    1.1411283 
  987600    302.02297    -111668.5   -110826.74    772.06084    9338.0179     1.141578 
  987700    296.99217   -111664.76   -110837.02    -12343.45    9332.7045    1.1422279 
  987800    300.59077    -111685.2   -110847.44    6722.2081    9325.6263    1.1430948 
  987900    293.96351   -111675.02   -110855.73    3357.6692     9317.859    1.1440477 
  988000      290.315   -111670.64   -110861.51    3151.6612    9309.3597    1.1450922 
  988100     292.4297   -111678.83   -110863.81   -8640.3388    9299.0372    1.1463633 
  988200    292.87147   -111679.19   -110862.94    6701.0497    9286.9397    1.1478566 
  988300    282.88893   -111644.03    -110855.6   -2850.6025    9274.1685    1.1494373 
  988400    288.71946   -111644.86   -110840.18    3454.9402    9262.3478    1.1509042 
  988500    300.67521   -111654.58   -110816.58     1035.486    9251.7082    1.1522278 
  988600    304.29788   -111645.36   -110797.26    1735.7973    9240.3823    1.1536401 
  988700    300.61264   -111622.76   -110784.93    4282.6926    9226.9601    1.1553183 
  988800    300.74908   -111616.62   -110778.41   -3978.2678    9212.6479    1.1571131 
  988900    310.33716   -111641.79   -110776.86   -2369.6306    9197.4899    1.1590201 
  989000    302.88654   -111619.05   -110774.89    9234.5272    9181.8962    1.1609884 
  989100    297.69915   -111604.42   -110774.71   -4418.4233    9167.6078    1.1627979 
  989200    291.66978   -111589.44   -110776.53    5895.9394    9154.0688    1.1645177 
  989300     309.6814   -111642.43   -110779.33    562.52827    9142.5309    1.1659873 
  989400    296.99709   -111612.11   -110784.37    45.452886    9132.0356    1.1673274 
  989500    311.92794   -111660.45   -110791.09    3144.5121    9120.1649    1.1688468 
  989600    293.19038   -111617.11   -110799.97   -9157.2943    9107.2335    1.1705064 
  989700      302.531   -111651.49   -110808.32    -513.1756    9095.8445     1.171972 
  989800    304.52762   -111667.88   -110819.14    7329.3502    9086.5075    1.1731763 
  989900    292.74595   -111647.07   -110831.17     951.0317    9078.9525    1.1741526 
  990000    290.15159   -111650.33   -110841.66    4780.2429     9071.806    1.1750775 
  990100    284.84279   -111642.24   -110848.37   -146.40369    9064.8616    1.1759777 
  990200      288.084   -111655.28   -110852.37     3303.108    9059.1029    1.1767253 
  990300     292.7613   -111668.42   -110852.48   -1253.3469    9055.0357    1.1772538 
  990400    281.09191   -111632.89   -110849.47   -6193.5695    9052.3646    1.1776012 
  990500    294.63289   -111664.84   -110843.68     4694.834    9050.7806    1.1778073 
  990600    300.25595   -111671.21   -110834.38    1198.0944    9051.2209      1.17775 
  990700    299.13586   -111656.08   -110822.38   -1214.8951    9051.4819     1.177716 
  990800    296.30054   -111632.82   -110807.01    8771.8467    9049.4691     1.177978 
  990900    298.18362   -111622.37   -110791.32   -423.35023    9045.6328    1.1784776 
  991000    305.05557   -111629.78   -110779.58    3345.2757    9041.8154    1.1789751 
  991100    298.27055   -111606.64   -110775.34    2418.4611    9038.8586    1.1793608 
  991200    304.41169    -111621.6   -110773.19   -1845.4197    9036.5969     1.179656 
  991300    319.50872   -111665.71   -110775.22   -1917.3942      9033.95    1.1800016 
  991400    305.55848   -111632.92   -110781.31    6543.1574    9030.6865     1.180428 
  991500    297.16362   -111615.73   -110787.52   -4765.3102    9026.5918    1.1809635 
  991600    311.11313   -111660.44   -110793.35    4807.4796    9021.8549    1.1815836 
  991700    301.80445   -111640.88   -110799.73    2288.0812    9018.4506    1.1820296 
  991800    289.15327   -111612.17   -110806.28    -5228.404    9016.9887    1.1822212 
  991900    304.24111   -111659.23   -110811.29    11187.493    9014.9009     1.182495 
  992000    292.94742   -111633.39   -110816.93   -4796.7526    9013.8047    1.1826388 
  992100    294.10731   -111641.35   -110821.65    447.96756    9014.0986    1.1826003 
  992200    300.41259   -111662.87    -110825.6   -1944.5741     9014.068    1.1826043 
  992300    297.56575   -111658.21   -110828.88   -2391.4434    9013.7802     1.182642 
  992400    298.67807   -111663.83    -110831.4    -1001.932    9013.1667    1.1827225 
  992500     285.3292   -111628.65   -110833.42     5759.003    9012.6754     1.182787 
  992600    294.23406   -111653.69   -110833.65    1127.7426    9011.7686     1.182906 
  992700    296.51057   -111658.97   -110832.57    18000.995    9010.5019    1.1830723 
  992800    295.79698   -111654.82   -110830.42     502.9246    9010.7543    1.1830392 
  992900    299.11639   -111656.84   -110823.18   -1956.5015     9013.271    1.1827088 
  993000    303.29377   -111659.78   -110814.48   -6305.9099    9017.0716    1.1822103 
  993100    311.19603   -111671.54   -110804.22   -4322.6989    9019.8306    1.1818487 
  993200    305.46798   -111644.12   -110792.76   -3060.2564    9020.6281    1.1817442 
  993300     316.8483   -111664.51   -110781.44    2944.9857    9020.2317    1.1817962 
  993400    309.45188   -111634.58   -110772.12    2447.3353    9020.9648    1.1817001 
  993500    310.78266   -111634.31   -110768.14    -208.7885    9023.4798    1.1813708 
  993600    301.73527   -111605.65    -110764.7   -4534.4947    9025.9759    1.1810441 
  993700    309.35135   -111625.74   -110763.56   -477.06647     9027.565    1.1808362 
  993800    318.27965   -111652.12   -110765.06   -2530.2944    9029.6118    1.1805685 
  993900    307.78116   -111627.53   -110769.73     3223.996    9032.7688    1.1801559 
  994000    293.09288   -111595.78   -110778.91    3578.6318    9036.8466    1.1796234 
  994100    307.97149   -111650.71   -110792.37   -6499.8523     9041.399    1.1790294 
  994200    291.89342   -111624.27   -110810.74   -3778.1448    9045.7391    1.1784637 
  994300    295.13199   -111650.66   -110828.11   -10892.374    9049.9445    1.1779161 
  994400    286.24701   -111638.44   -110840.65    11798.499    9054.7375    1.1772926 
  994500    296.16122   -111672.78   -110847.37   -3240.3137    9060.4535    1.1765499 
  994600    291.98782   -111663.28    -110849.5   -498.03131     9067.315    1.1756595 
  994700    287.09304   -111648.71   -110848.56     5279.796    9075.4177    1.1746099 
  994800    295.16941   -111667.72   -110845.07   -9344.0498    9084.0586    1.1734926 
  994900    297.89375   -111670.92   -110840.67    3531.2788    9092.8623    1.1723564 
  995000    297.39096   -111663.69   -110834.84    -1434.133    9102.5831    1.1711044 
  995100    305.71018   -111680.94   -110828.91   -4622.9333    9112.8808    1.1697811 
  995200    290.90916   -111633.58    -110822.8    4380.2698    9122.4659     1.168552 
  995300    294.55952   -111635.65    -110814.7    1026.5686    9132.2521    1.1672997 
  995400    297.54548   -111636.18    -110806.9    4569.1516    9143.0662    1.1659191 
  995500    293.59506   -111616.33   -110798.06   -6221.9025    9154.2013    1.1645009 
  995600     295.5487   -111613.05   -110789.34   -1632.1993    9164.3892    1.1632063 
  995700    293.35982   -111599.93   -110782.32    1733.8853    9173.8719     1.162004 
  995800    312.26944    -111646.9   -110776.59    1340.8105    9182.6996    1.1608869 
  995900    304.54184   -111621.48    -110772.7    8784.7741    9190.6635    1.1598809 
  996000     296.7022   -111597.13   -110770.21    337.43664    9197.9285    1.1589648 
  996100    300.48077   -111606.87   -110769.41    9824.3872     9204.943    1.1580816 
  996200    306.89235   -111625.58   -110770.26    233.60933    9211.3886    1.1572713 
  996300     313.9081   -111647.63   -110772.75   -7545.8503     9217.112    1.1565527 
  996400    305.09757   -111625.76   -110775.43    2917.6435    9221.4645    1.1560068 
  996500    303.72354   -111624.75   -110778.26     5042.189    9224.4482    1.1556329 
  996600    289.25522   -111587.23   -110781.06    3012.5483     9226.737    1.1553462 
  996700    305.98823   -111635.97   -110783.16     4751.486    9228.2149    1.1551611 
  996800    298.08841   -111615.07   -110784.28   -5060.2964    9228.4425    1.1551327 
  996900    303.01983   -111630.43    -110785.9   -894.46714    9227.5004    1.1552506 
  997000    297.44698   -111614.41   -110785.41   -4806.0013    9225.7611    1.1554684 
  997100    295.38573    -111609.5   -110786.24   -3484.7844     9224.579    1.1556165 
  997200    294.97399   -111609.84   -110787.73   -14129.504    9223.4525    1.1557576 
  997300    303.22307   -111635.38   -110790.28    3219.3068    9222.0588    1.1559323 
  997400    303.11103   -111639.78   -110794.99    7513.2305    9218.9568    1.1563212 
  997500    312.10995   -111670.35   -110800.48   -4500.8975    9215.5611    1.1567473 
  997600    294.64546   -111630.24   -110809.05   -3606.7752    9212.1041    1.1571814 
  997700    296.62018    -111646.3    -110819.6    9678.0484    9208.2325    1.1576679 
  997800    296.56872   -111656.79   -110830.24    2066.4665     9204.273    1.1581659 
  997900    293.68769   -111659.12   -110840.59    717.06292    9199.3104    1.1587907 
  998000    295.11211   -111672.49   -110849.99   -4108.6521    9193.4712    1.1595267 
  998100    287.98965    -111660.2   -110857.55    3558.4237    9186.4743    1.1604099 
  998200    287.76665   -111664.26   -110862.23   -8193.6099    9179.0043    1.1613542 
  998300    291.19606   -111675.21   -110863.63   -11806.188    9170.4958    1.1624317 
  998400    298.30712    -111692.6    -110861.2    1834.6687     9161.479    1.1635758 
  998500    291.50688   -111666.66   -110854.22    -2970.971    9152.2005    1.1647554 
  998600     289.8833   -111651.26   -110843.34   -4889.7761    9143.1268    1.1659114 
  998700    296.93591   -111651.38    -110823.8     15742.53     9134.721    1.1669842 
  998800    304.31647   -111649.27   -110801.12   -2237.3624    9125.5322    1.1681593 
  998900    298.05946   -111616.44   -110785.73    4645.4788    9115.6224    1.1694292 
  999000    311.14913   -111645.94   -110778.75   -4327.2231    9105.7599    1.1706959 
  999100    302.16785   -111618.13   -110775.97   -1414.9094    9096.2197    1.1719237 
  999200     309.1024   -111637.96   -110776.47    10779.097     9086.564     1.173169 
  999300    310.95964   -111646.42   -110779.76   -5297.5156    9078.9005    1.1741593 
  999400    294.30853   -111605.72   -110785.47   -10026.565    9072.8355    1.1749442 
  999500      299.692   -111627.78   -110792.52    6292.0865    9066.9887    1.1757018 
  999600    299.60269   -111634.33   -110799.32    5753.8595    9062.1639    1.1763278 
  999700    311.65414   -111675.32   -110806.72    4742.8241    9058.3114    1.1768281 
  999800    284.14518   -111610.05   -110818.12   -4436.7465    9056.9639    1.1770032 
  999900    288.19176   -111631.55   -110828.34    -2014.848    9056.8745    1.1770148 
 1000000    299.03734   -111670.24    -110836.8   -1263.1497    9057.4489    1.1769402 
Loop time of 104839 on 1 procs for 1000000 steps with 936 atoms

Performance: 0.206 ns/day, 116.488 hours/ns, 9.538 timesteps/s
99.9% CPU use with 1 MPI tasks x no OpenMP threads

MPI task timing breakdown:
Section |  min time  |  avg time  |  max time  |%varavg| %total
---------------------------------------------------------------
Pair    | 86358      | 86358      | 86358      |   0.0 | 82.37
Neigh   | 366.05     | 366.05     | 366.05     |   0.0 |  0.35
Comm    | 22.558     | 22.558     | 22.558     |   0.0 |  0.02
Output  | 1.5999     | 1.5999     | 1.5999     |   0.0 |  0.00
Modify  | 18090      | 18090      | 18090      |   0.0 | 17.26
Other   |            | 1.133      |            |       |  0.00

Nlocal:    936 ave 936 max 936 min
Histogram: 1 0 0 0 0 0 0 0 0 0
Nghost:    9054 ave 9054 max 9054 min
Histogram: 1 0 0 0 0 0 0 0 0 0
Neighs:    609917 ave 609917 max 609917 min
Histogram: 1 0 0 0 0 0 0 0 0 0

Total # of neighbors = 609917
Ave neighs/atom = 651.621
Neighbor list builds = 10000
Dangerous builds not checked

Please see the log.cite file for references relevant to this simulation

Total wall time: 29:07:19
