ITEM: TIMESTEP
1500000
ITEM: NUMBER OF ATOMS
936
ITEM: BOX BOUNDS pp pp pp
-1.5000000000000000e+01 5.0000000000000000e+01
-1.5000000000000000e+01 5.0000000000000000e+01
-1.5000000000000000e+01 5.0000000000000000e+01
ITEM: ATOMS id type xu yu zu 
249 2 58.6003 56.8489 8.69402 
248 2 57.5137 59.0683 8.29899 
225 1 57.75 58.692 9.27425 
247 2 56.5066 60.9577 9.27358 
741 2 55.9583 56.0352 13.4829 
721 1 55.5236 56.2896 14.4552 
729 1 57.611 55.4448 15.5427 
722 1 56.2619 56.0897 15.6436 
720 1 54.1696 56.7816 14.506 
745 2 55.2624 57.2496 11.9248 
740 1 54.3069 56.792 11.8256 
730 1 57.495 53.9604 15.0703 
725 1 53.558 57.1039 15.7811 
738 2 57.0312 53.914 14.0827 
744 2 54.365 55.7054 11.6591 
746 2 53.8031 57.1717 10.9306 
739 1 53.4257 56.965 13.1317 
743 2 52.5501 56.2811 13.0525 
671 2 -9.80449 -12.2067 17.0481 
742 2 52.8503 57.913 13.0721 
728 4 52.3869 57.9255 15.9592 
683 2 -9.62625 -14.6062 16.8401 
724 1 54.2251 56.4924 16.929 
653 3 -6.8828 -14.0697 16.8055 
736 2 56.8912 53.2988 15.7581 
723 1 55.6713 56.4319 16.9363 
226 1 58.3108 57.4504 9.49797 
228 1 58.3247 57.7491 11.8604 
250 2 58.589 57.4142 12.9062 
735 2 58.2825 55.9931 14.9209 
242 2 58.3093 55.0055 12.9199 
734 2 58.1747 55.4713 16.5142 
737 2 58.4875 53.4712 14.9888 
227 1 58.6054 56.9202 10.7505 
230 3 59.1375 55.6167 10.8321 
256 2 58.9132 53.0523 11.4894 
258 2 61.1251 52.9284 10.324 
673 2 -5.11994 -13.6426 14.8511 
234 1 59.1955 55.036 12.2307 
255 2 59.8085 55.6159 12.9978 
235 1 59.7106 53.6225 12.0174 
236 1 61.0959 53.5793 11.2832 
238 3 60.892 53.0553 12.6047 
257 2 61.5541 54.6201 11.0402 
370 2 60.1087 56.4217 15.8671 
647 1 -4.66802 -13.8121 15.8443 
648 1 -3.30784 -13.8104 15.918 
107 1 -2.61951 -10.1007 14.671 
109 3 -2.28106 -8.70393 14.8947 
106 1 -1.19452 -9.5192 14.3831 
105 1 -0.106533 -9.99287 15.2443 
674 2 -2.66626 -13.5914 15.0463 
129 2 -3.0904 -10.5766 13.8035 
669 2 -0.806402 -13.3714 16.431 
127 2 -0.96166 -9.65151 13.2784 
362 1 60.2842 57.4996 16.0966 
383 2 61.2934 57.7206 15.7802 
113 2 0.362549 -9.0609 15.6108 
101 3 0.80825 -11.0453 14.631 
839 2 -4.00439 -7.30853 13.6597 
126 2 -0.531465 -10.1486 16.2826 
128 2 -2.69316 -10.8114 15.4927 
646 1 -5.47807 -14.0154 16.9804 
652 1 -1.18686 -13.8555 17.337 
649 1 -2.70754 -13.9621 17.1916 
121 2 1.03438 -10.608 17.238 
842 2 -6.57582 -6.96321 15.6088 
677 2 -0.658146 -14.8252 17.2553 
98 1 1.53591 -11.7977 15.5683 
120 2 2.36453 -13.11 14.0593 
97 1 2.36303 -12.8592 15.1608 
99 1 1.6361 -11.4725 16.932 
96 1 3.16084 -13.6307 16.0245 
870 2 3.60829 -7.36916 14.8376 
864 1 3.39472 -7.82133 15.8323 
867 2 5.04834 -9.19297 15.9278 
869 2 2.63102 -8.60256 15.7109 
863 1 4.61264 -8.40081 16.5736 
868 2 2.81563 -7.09819 16.4502 
844 1 5.7229 -7.41253 16.837 
119 2 3.78075 -14.4507 15.6394 
95 1 3.14916 -13.298 17.3969 
457 2 47.8135 56.5696 14.5156 
464 2 49.2628 57.0059 17.0543 
441 1 48.8273 57.9491 17.444 
470 2 49.3734 57.1908 14.9226 
453 3 49.7364 57.4609 12.4693 
471 2 47.5311 58.0237 12.609 
450 1 48.5262 57.8907 13.1083 
449 1 48.3707 57.5457 14.5472 
239 2 57.5273 61.6731 10.4599 
826 2 -8.82453 -4.54848 16.3214 
824 2 -7.81756 -5.7069 16.8537 
222 1 56.8307 60.8435 10.3202 
749 2 52.2488 58.3322 15.0081 
229 1 57.8243 59.0543 11.7484 
224 1 57.5029 59.4643 10.4781 
245 2 54.5097 59.3494 10.3063 
246 2 52.8952 59.2096 12.0241 
220 1 54.5726 60.1233 11.1427 
221 1 53.6132 60.0734 12.1017 
819 1 -8.05359 -5.21379 15.9243 
825 2 -8.56654 -5.95533 15.2678 
244 2 56.4588 62.6344 12.5997 
219 1 55.676 61.0356 11.2956 
840 2 -8.93417 -3.08462 15.7801 
820 4 -8.15776 -2.42981 15.449 
218 1 55.655 61.9049 12.3972 
217 1 54.6733 61.7591 13.3631 
216 1 53.5881 60.8322 13.2455 
243 2 54.7574 62.4073 14.2521 
223 3 52.6082 60.5655 14.2109 
252 2 53.7448 61.2905 16.0355 
231 1 52.7304 61.2389 15.5303 
240 2 52.5082 62.3114 15.6332 
82 2 56.0694 64.4677 16.0434 
61 1 56.8439 63.784 16.415 
254 2 53.6723 59.4231 16.8812 
233 1 52.6068 59.1835 16.7982 
232 1 51.8107 60.4161 16.4355 
253 2 50.9218 60.1238 15.8704 
251 2 57.6819 59.6552 12.6735 
69 2 57.7979 64.3371 16.3583 
816 1 -6.91724 -3.08292 15.1351 
472 2 50.21 59.3979 13.5776 
827 2 -6.94523 -0.85112 13.8576 
77 2 65.6189 58.1857 16.5806 
817 1 -6.79698 -4.47979 15.3419 
837 2 -2.47931 -6.77466 12.8934 
821 4 -5.66342 -6.73889 15.1669 
833 1 -3.4172 -6.39281 13.2605 
828 2 -5.42058 -1.02124 13.1504 
822 1 -5.88425 -1.0422 14.1255 
815 1 -5.77298 -2.44241 14.5873 
831 2 -4.64223 0.826915 14.2424 
830 2 -6.09537 0.938847 15.1287 
829 2 -4.74736 -0.104378 15.7018 
823 1 -5.28598 0.211768 14.8537 
836 2 -2.49527 -4.39541 13.8021 
838 2 -4.01343 -6.17805 12.3942 
832 1 -3.20286 -5.14238 14.2835 
835 2 -2.51626 -5.47639 15.1264 
818 1 -5.68059 -5.30433 15.0973 
813 1 -4.55493 -4.53379 14.6452 
814 1 -4.60694 -3.16223 14.3546 
834 2 -3.73649 -2.6621 14.0357 
76 2 64.8937 60.4964 16.0691 
481 3 0.505468 -1.41973 14.7792 
489 1 -0.199458 -0.16942 15.2895 
75 2 64.592 62.9214 16.9226 
53 1 65.072 60.2396 17.1369 
54 1 65.4624 58.9221 17.4376 
511 2 -2.06486 -1.14713 14.9901 
499 2 -2.72963 -0.246059 12.7608 
491 1 -2.01346 0.408507 13.3194 
512 2 -1.29974 0.623805 12.5409 
498 2 0.293628 0.790097 15.0882 
490 1 -1.53864 -0.217693 14.701 
495 3 -2.22498 1.03738 14.5839 
510 2 -0.225566 -0.0191725 16.379 
865 2 5.75961 -6.702 14.81 
501 2 2.00412 -3.58897 14.2564 
845 1 6.25357 -6.66282 15.7825 
862 2 6.23436 -3.65245 14.2634 
479 1 2.4475 -0.804332 16.2465 
477 1 4.28729 -2.37551 16.5044 
505 2 5.74651 -3.83812 16.7244 
497 2 6.42322 -2.24698 17.0651 
854 1 7.31491 -3.67828 14.5823 
861 2 7.51807 -3.09578 15.4826 
846 1 7.37424 -5.86495 15.915 
860 2 7.7882 -3.03973 13.8242 
853 1 7.89103 -5.1733 14.6364 
859 2 8.9866 -5.14062 14.6319 
858 2 7.66157 -5.76177 13.7241 
476 1 3.71014 -3.13367 15.4628 
502 2 4.12686 -4.09556 15.1995 
847 1 8.00777 -5.67285 17.128 
474 1 1.75665 -1.64885 15.2978 
475 1 2.45298 -2.82637 14.9625 
851 4 9.08097 -4.70734 17.3472 
480 1 5.5133 -2.88107 17.2127 
478 1 3.58252 -1.22368 16.933 
504 2 1.90978 0.147156 16.4932 
494 1 10.4821 -5.1805 17.2376 
515 2 10.8852 -5.43989 16.2017 
451 1 49.7544 58.8742 12.7086 
473 2 49.5118 59.7013 12.0227 
445 3 47.6579 58.6715 15.3146 
442 1 47.901 58.7034 16.6939 
465 2 46.6168 60.3897 16.7693 
443 1 47.2827 59.7617 17.3654 
662 1 -9.07702 -14.2037 17.7428 
661 1 -7.70477 -14.7512 17.8036 
747 2 57.5814 56.9077 18.0453 
727 4 56.4209 56.6893 18.0846 
731 2 53.6887 55.1769 18.6481 
726 1 53.2189 55.9253 17.9757 
320 1 56.1203 55.2998 -41.4185 
316 3 56.4278 56.737 -41.3213 
321 1 55.4365 54.8932 -42.7246 
322 1 56.0405 53.7459 -43.6194 
342 2 55.1567 55.8232 -43.2654 
324 3 54.8326 53.5779 -42.8865 
733 2 52.7409 56.6162 18.6539 
344 2 56.1624 54.079 -44.6142 
343 2 57.0306 53.4584 -43.2803 
684 2 -8.30414 -12.0082 17.7554 
456 2 55.2444 56.3837 19.8979 
448 1 55.8087 57.1516 19.3948 
313 1 56.8921 57.1515 -40.0297 
328 2 55.5651 54.7445 -40.619 
732 2 52.4886 55.2121 17.5643 
458 2 51.8257 57.2844 23.0782 
341 2 56.9752 54.6132 -41.2366 
591 2 -9.25551 -13.1061 23.5629 
583 2 -7.53497 -13.2935 23.9135 
432 1 51.587 57.9782 22.3 
566 1 -8.46034 -13.8994 23.8238 
469 2 56.66 57.2542 20.0132 
663 1 -9.2133 -12.6411 17.8595 
670 2 -7.38194 -14.8833 18.8755 
563 1 -8.78751 -14.346 25.254 
372 2 58.0982 53.4488 19.0928 
438 3 53.8885 57.999 21.7569 
592 2 -9.93162 -14.4118 21.6562 
667 3 -9.69007 -13.5262 18.8785 
361 1 60.0723 57.8115 17.5856 
373 2 58.3829 51.8432 20.993 
632 2 -5.96895 -11.1907 24.5031 
347 1 59.1489 52.5837 20.7641 
368 2 59.6107 51.3123 23.0654 
369 2 61.3886 56.2212 17.8645 
633 2 -5.96726 -9.58898 22.6871 
346 1 58.9739 53.5184 19.748 
352 3 59.4555 55.624 18.6716 
360 1 60.5365 56.5753 18.4284 
654 1 -0.655417 -13.1509 18.55 
681 2 -1.74471 -11.3558 18.3176 
659 1 -1.01469 -11.8441 18.924 
381 2 61.1855 56.8755 19.2713 
375 2 61.8236 55.2886 20.0859 
350 1 61.0569 54.5843 20.2793 
349 1 61.2229 53.781 21.3645 
345 1 59.8433 54.5728 19.5364 
608 1 -5.28272 -9.41464 23.5362 
607 1 -5.32545 -10.3256 24.5917 
789 4 0.229046 -10.8627 25.3825 
348 1 60.3023 52.7331 21.5909 
374 2 62.0871 53.8165 22.0438 
376 2 60.982 52.2358 23.6751 
351 1 60.5665 51.7384 22.7328 
792 1 0.10679 -6.92527 23.3587 
809 2 0.0695118 -10.5736 24.3474 
798 2 0.188989 -6.91118 22.345 
784 1 0.537212 -8.30071 25.5181 
680 2 -0.970249 -10.2444 20.3536 
658 1 -0.583878 -11.2205 20.0797 
377 2 63.3071 51.6004 23.1097 
353 1 61.5262 50.6245 22.2551 
354 1 62.9118 50.7422 22.55 
657 1 0.34544 -11.8066 20.9503 
791 1 0.778575 -8.17319 24.0221 
655 1 0.355657 -13.7411 19.3737 
656 1 0.788256 -13.0754 20.4885 
639 2 -5.93541 -8.0261 21.216 
603 1 -4.46837 -8.27724 23.5798 
604 1 -3.60185 -8.23897 24.6887 
796 2 0.459975 -9.04233 23.4786 
660 3 0.741718 -11.2093 22.1504 
688 2 1.22275 -12.8293 25.2604 
630 2 -2.98889 -7.35346 24.7532 
627 2 -6.59226 -6.92172 22.1787 
651 1 -4.84161 -14.2674 18.2016 
70 2 66.2413 55.8393 20.3462 
610 3 -4.45792 -7.1957 22.6854 
618 1 -5.55872 -7.12588 21.7271 
678 2 0.726283 -14.7885 19.1721 
650 1 -3.46298 -14.2291 18.3684 
676 2 -5.43853 -14.4456 19.0901 
675 2 -2.93996 -14.3951 19.3488 
118 2 4.84742 -14.6207 17.6618 
866 2 4.29591 -8.95467 17.5066 
58 3 66.4162 57.2174 18.6811 
93 1 4.02218 -14.178 18.3178 
797 2 1.85491 -8.20502 23.8044 
83 2 66.7198 57.2861 20.945 
110 2 3.45297 -14.9698 18.7887 
62 1 66.8274 56.7079 20.0194 
849 1 6.27129 -7.21994 18.1655 
116 2 5.34001 -11.8489 17.9131 
679 2 1.54644 -13.6072 21.0592 
666 1 1.472 -11.7274 25.323 
685 2 1.38973 -12.9521 23.3241 
664 1 1.72429 -12.0121 22.9367 
665 1 2.39453 -11.318 24.1256 
100 1 2.40553 -12.1937 17.8257 
86 2 68.8606 58.0316 18.5354 
686 2 2.21728 -10.2802 23.8648 
672 2 2.58536 -12.4831 22.3891 
122 2 2.43212 -11.8609 18.8652 
90 1 4.66855 -13.3114 19.3925 
91 1 5.35104 -12.1379 18.9836 
89 1 4.5799 -13.6794 20.7313 
88 1 5.2971 -12.9278 21.6794 
92 1 5.92364 -11.3907 19.9547 
87 1 6.00403 -11.7565 21.3141 
114 2 5.26269 -13.1933 22.7728 
94 3 6.8009 -10.991 22.2125 
102 1 7.39152 -9.69492 21.6746 
117 2 6.38592 -10.4355 19.5778 
123 2 8.4694 -9.86212 21.5687 
111 2 7.20183 -9.3566 20.6754 
810 2 4.25336 -11.3679 23.4714 
84 2 68.5475 55.7228 19.1475 
103 1 7.08751 -8.53494 22.6172 
108 3 6.43216 -7.33804 21.895 
63 1 68.3411 56.4277 19.9958 
873 2 6.14001 -7.25378 20.2075 
64 1 69.1342 57.6725 19.523 
852 4 5.63464 -7.63578 19.3499 
66 3 68.7471 55.9432 21.3458 
668 3 3.85096 -11.7353 24.2776 
124 2 8.03471 -8.40889 23.211 
112 2 5.23166 -9.54079 23.2244 
933 2 6.83053 54.3039 88.9375 
104 1 6.07211 -8.97453 23.7063 
874 2 4.68659 -8.8293 21.2539 
913 4 6.74453 55.0906 89.6828 
125 2 5.68237 -8.05499 24.2164 
920 2 7.20887 52.2049 89.1553 
915 1 7.67158 52.3527 90.0989 
921 2 7.84474 51.3262 90.4647 
855 2 8.25909 -7.48132 19.8862 
115 2 3.93911 -14.4759 21.042 
297 2 2.7562 -14.6264 23.8272 
916 1 9.06842 53.0124 89.9468 
922 2 8.89667 54.111 90.1106 
919 2 4.44511 56.2879 90.1536 
923 2 9.50666 52.8001 88.9696 
459 2 49.557 57.8242 22.7413 
463 2 49.7526 57.5776 19.3828 
433 1 50.2965 58.3829 22.1925 
312 1 56.866 58.5183 -39.7504 
335 2 56.4257 59.2104 -40.5057 
60 1 56.4775 63.4547 17.8848 
80 2 57.9622 61.9194 17.7685 
65 3 55.0765 62.845 17.9366 
81 2 56.6011 64.4779 18.3979 
841 2 -9.61675 -3.08104 18.158 
59 1 57.715 62.7415 18.4518 
748 2 56.7467 59.2197 18.9325 
452 3 55.8155 59.5897 18.8214 
447 1 55.04 58.513 19.4864 
455 2 56.0357 58.5721 21.4107 
431 1 52.6074 58.5436 21.5437 
446 1 54.9734 58.7143 21.0297 
468 2 53.947 58.3936 19.2443 
241 2 52.4418 58.9007 17.8476 
237 3 51.4195 61.1775 17.6648 
750 2 52.3069 61.6747 17.863 
436 1 52.1755 59.5526 20.6659 
435 1 50.8681 59.9339 20.4539 
461 2 52.9192 60.0257 19.9782 
879 1 53.9518 62.5879 22.0397 
881 1 55.2134 62.1088 21.3222 
886 2 56.017 62.8777 21.1936 
887 2 54.8697 61.873 20.322 
888 2 55.6574 61.1998 21.9115 
467 2 55.0321 59.8305 21.0601 
878 1 53.883 62.4136 23.4751 
877 1 52.5257 61.9562 23.8451 
460 2 50.5871 60.7171 19.6966 
904 2 52.157 63.2353 19.2527 
880 1 52.86 63.0415 21.1669 
883 4 53.0093 63.4628 19.8133 
905 2 53.9125 63.1795 19.4512 
155 2 55.7373 64.2952 23.0337 
875 1 51.6208 62.9866 21.7651 
884 1 52.3293 60.9243 24.9767 
876 1 51.4013 62.4085 23.099 
896 2 50.4051 62.1087 23.4639 
894 1 50.3538 63.5067 21.0924 
891 2 53.4123 59.1742 23.9159 
889 2 51.2735 60.4749 25.0122 
147 1 56.0926 63.6437 23.9329 
885 1 53.4362 59.7603 24.8588 
882 4 54.8814 62.7352 24.3726 
68 2 57.4507 62.0793 19.3027 
893 2 54.4441 60.1439 25.0209 
168 2 56.2474 64.3146 24.764 
146 1 57.3451 62.9103 23.6217 
151 3 57.2495 61.4152 23.5199 
167 2 57.5138 62.8953 22.5505 
901 2 51.1159 64.6916 19.4647 
895 1 50.3532 64.8407 20.2959 
899 2 50.6578 65.6983 20.8502 
382 2 60.8076 58.5847 17.8592 
72 2 62.2671 60.8141 17.9885 
71 2 59.939 61.3801 18.1784 
800 2 -1.01158 -6.86299 23.5606 
843 2 -6.52321 -6.63457 18.7813 
366 3 58.5567 58.1581 17.7893 
154 2 58.3382 64.6338 24.4225 
799 2 0.590726 -5.99195 23.7152 
55 1 65.7759 58.4671 18.6847 
903 2 58.1658 61.2014 23.8027 
51 3 58.7543 63.8097 18.7251 
78 2 65.876 59.2571 20.7996 
50 1 64.4028 62.6176 17.9876 
52 1 64.9133 61.1901 18.1575 
73 2 63.1371 64.9144 18.8956 
48 1 62.4672 64.108 18.7603 
47 1 62.9474 62.8457 18.3109 
46 1 61.9814 61.8103 18.1786 
45 1 60.6567 62.1856 18.3485 
67 2 65.03 63.4198 18.4499 
49 1 61.1229 64.3596 18.9233 
74 2 60.8726 65.3236 19.2838 
44 1 60.1116 63.4253 18.7309 
640 2 -4.24792 -5.98789 20.4427 
624 3 -6.37093 -5.23638 20.2718 
641 2 -5.95135 -4.6579 22.3931 
79 2 65.1297 61.4486 20.283 
57 1 65.2603 60.7565 19.4779 
619 1 -5.26918 -6.00399 20.757 
620 1 -5.65246 -4.61309 21.3623 
628 2 -4.82674 -3.89241 21.2403 
388 1 -0.0634613 -3.5329 23.4803 
389 1 -1.30956 -4.10231 23.1232 
390 1 -2.35382 -4.34661 24.0079 
56 1 65.666 59.4574 19.715 
416 2 -3.30083 -4.71008 23.6369 
395 3 0.797483 -3.08291 22.4561 
415 2 -1.42593 -4.41528 22.0654 
145 1 58.5443 63.6047 24.318 
137 3 59.7751 63.1746 23.6162 
131 1 62.2251 63.7487 23.4803 
157 2 62.3851 63.0523 22.6717 
130 1 60.9523 63.936 24.0057 
158 2 64.3591 64.2068 23.529 
132 1 63.363 64.3451 24.0827 
418 2 1.0598 -2.82059 25.2195 
393 1 0.078429 -3.27814 24.8309 
135 1 60.8132 64.8695 25.0632 
133 1 63.3235 65.1045 25.272 
161 2 65.1923 66.0089 25.1571 
409 3 1.12554 0.123293 21.2405 
166 2 58.4756 63.421 25.4587 
391 1 -2.17331 -4.05933 25.3928 
160 2 59.8272 65.2905 25.4375 
134 1 61.9517 65.3915 25.6055 
85 2 69.0953 58.4641 20.2579 
424 2 1.67757 -1.2705 23.392 
403 1 1.77223 -2.00199 22.5979 
848 1 7.45204 -6.48291 18.1908 
934 2 6.54825 58.3763 87.5413 
850 1 8.315 -6.50352 19.4314 
412 2 2.80682 -2.22785 22.8016 
404 1 1.71579 -1.19529 21.3189 
425 2 1.83264 -1.82581 20.4504 
503 2 3.93344 -0.564378 17.7583 
856 2 7.93043 -5.79396 20.1745 
509 2 3.30709 -3.59425 18.6921 
482 1 5.39271 -3.14778 18.7057 
487 1 4.18332 -3.50524 19.303 
506 2 7.51795 -2.90021 19.1732 
500 2 3.61234 -5.92705 22.3311 
513 2 2.99583 -4.79297 23.1127 
508 2 3.16247 -4.30343 20.9815 
492 1 4.05361 -5.24212 23.0921 
483 1 6.53794 -3.09007 19.5522 
484 1 6.43881 -3.4904 20.8649 
488 3 5.29824 -4.46417 22.7591 
486 1 4.12484 -4.0196 20.581 
485 1 5.24575 -4.02739 21.432 
507 2 7.31107 -3.58163 21.4324 
493 1 4.21853 -5.93913 24.4332 
514 2 5.25935 -6.20488 24.6124 
405 1 2.57955 0.0596732 21.1117 
413 2 3.14865 0.02332 20.1472 
426 2 3.27458 0.320671 21.9385 
871 2 8.98514 -4.49726 18.3708 
496 3 3.24519 -5.95887 25.2504 
516 2 10.7258 -6.10652 17.781 
872 2 11.0616 -4.35579 17.6776 
857 2 9.43772 -6.40756 19.2682 
440 1 49.0232 58.1613 18.8048 
462 2 47.8554 58.6443 21.5294 
434 1 49.842 59.3426 21.2155 
898 2 49.8501 62.7586 20.3848 
437 1 48.3456 59.3911 20.9823 
897 2 49.7172 63.6341 21.9848 
900 2 49.3675 65.066 19.901 
454 2 47.8706 60.3533 21.2723 
439 1 48.2698 59.173 19.4243 
466 2 46.8472 60.8205 19.2511 
444 1 47.4045 59.9988 18.7107 
762 2 -6.28815 -23.4765 24.2151 
781 2 -5.48399 -24.2272 22.3355 
755 1 -4.08075 -23.2543 24.2615 
757 1 -5.3929 -24.0481 24.5524 
759 4 -4.55739 -23.8847 21.9364 
756 1 -3.71634 -23.2918 22.9112 
780 2 -4.18262 -23.9002 20.9991 
764 2 -5.34559 -25.0637 24.0995 
773 2 -1.74068 -23.9214 20.8499 
568 1 -8.3153 -15.0786 22.9146 
682 2 -7.8056 -15.8455 17.6612 
569 1 -9.12049 -15.198 21.7733 
593 2 -9.5092 -16.4264 19.9738 
570 1 -8.88344 -16.2652 20.8765 
573 1 -7.18408 -15.9207 23.0239 
571 1 -7.76052 -17.0951 20.9418 
714 2 -9.53416 -22.2263 25.383 
588 2 -8.78913 -16.4954 24.7466 
572 1 -6.9198 -16.8958 22.0791 
574 3 -7.46279 -18.0389 19.8891 
711 2 -8.43175 -20.0011 25.6075 
562 1 -8.92116 -15.7487 25.508 
358 1 60.9559 49.6148 21.4675 
380 2 59.8836 49.5903 21.1813 
754 1 -3.3377 -22.7707 25.3795 
602 2 -5.11546 -20.9022 20.5874 
601 2 -5.7987 -21.8332 19.2073 
580 1 -5.25617 -20.8951 19.4707 
378 2 64.7446 49.7004 22.3852 
355 1 63.6723 49.7066 22.1236 
595 2 -6.55785 -15.8554 23.8849 
771 1 -1.88326 -21.8324 20.1563 
775 2 -2.82917 -21.8217 19.5767 
777 2 -1.84859 -20.7586 20.6366 
772 2 -0.489241 -22.0624 23.5086 
776 2 -1.09157 -21.7894 19.4133 
770 1 -1.68593 -22.864 21.3289 
582 3 -4.43594 -20.1112 18.5159 
371 2 63.2943 47.6878 18.6884 
359 3 64.1476 47.8084 20.7585 
600 2 -6.53474 -19.6922 18.0531 
579 1 -5.72227 -19.5532 18.774 
599 2 -5.31414 -17.7102 19.8437 
578 1 -6.05883 -18.4841 19.8854 
594 2 -5.97349 -17.3863 22.2212 
586 2 -5.52494 -18.7807 20.7683 
645 2 -4.05342 -20.2727 23.1541 
623 1 -3.3217 -19.7812 23.8132 
644 2 -2.49195 -19.4119 23.2002 
622 1 -3.98005 -18.7776 24.8956 
357 1 61.8161 48.6445 20.9678 
379 2 61.3881 47.8375 20.3573 
356 1 63.1872 48.6529 21.335 
643 2 -5.08099 -18.7456 24.7917 
384 2 63.0773 46.3438 19.547 
642 2 -3.25352 -17.0651 23.7563 
774 2 -0.628958 -22.8561 21.6232 
625 3 -3.25158 -19.9423 25.2443 
751 1 -2.39765 -22.8118 22.6056 
752 1 -1.52692 -22.3899 23.689 
363 1 63.8291 47.1 19.4754 
197 2 -0.387763 -19.0972 24.4485 
753 1 -1.96763 -22.4573 25.0076 
188 1 0.631963 -18.7949 24.7569 
180 3 0.875349 -17.3509 25.0971 
364 1 65.0868 46.4585 18.9519 
386 2 65.2521 45.038 20.7283 
367 3 64.9433 45.0873 18.4879 
209 2 0.794733 -19.5716 25.538 
365 1 65.7086 45.2478 19.7073 
385 2 65.8594 47.2077 18.6708 
637 2 -2.32859 -15.0511 25.3819 
621 1 -3.47655 -17.3768 24.8032 
617 3 -4.68436 -16.6464 25.5327 
629 2 -2.48415 -17.3854 25.2247 
210 2 1.6132 -18.2075 22.9192 
189 1 1.6507 -19.0452 23.6411 
387 2 66.7935 45.234 19.7603 
284 2 2.82142 -16.2915 24.179 
276 1 3.4473 -15.3813 24.1715 
211 2 3.84338 -18.6481 23.7511 
280 3 4.90963 -15.3129 24.0984 
275 1 4.38903 -15.0389 25.4047 
194 3 2.28042 -20.301 23.3493 
190 1 3.10611 -19.3647 24.0879 
198 2 3.23821 -19.3126 25.1938 
314 1 57.4391 56.2801 -39.0435 
336 2 57.6077 55.2234 -39.2004 
549 2 -10.7639 56.4917 -35.3253 
315 1 58.0308 56.8358 -37.9476 
195 3 -9.40338 -10.8071 29.3197 
215 2 -8.38801 -8.97022 30.1334 
193 1 -8.34705 -9.85007 29.4967 
192 1 -8.394 -11.2779 30.2147 
213 2 -8.3893 -11.134 31.3719 
518 1 -11.6629 53.7294 -32.9685 
545 2 -13.2334 54.9192 -33.8192 
544 2 -12.1126 52.7985 -33.3192 
521 1 -10.6773 56.1263 -31.8354 
522 1 -10.1144 54.8451 -31.6107 
520 1 -11.797 56.1387 -32.6764 
517 1 -10.515 53.6189 -32.159 
519 1 -12.2889 54.9243 -33.2377 
524 3 -9.95105 52.3386 -31.9503 
553 2 -7.76221 52.9737 -31.5681 
532 1 -8.62843 52.3126 -31.2735 
212 2 -7.58918 -12.369 28.6327 
191 1 -7.29993 -12.1615 29.7082 
554 2 -8.43873 50.322 -32.1513 
589 2 -9.18374 -12.4139 26.1134 
199 2 -7.50795 -13.1926 30.1282 
564 1 -9.13992 -13.4909 26.3248 
546 2 -10.2122 56.9964 -31.4412 
523 1 -12.589 57.3693 -33.1689 
548 2 -13.5962 57.0941 -33.5007 
329 2 57.0642 57.8244 -32.0996 
303 1 57.7578 57.5681 -32.8515 
590 2 -9.75595 -13.1978 28.4542 
526 1 -10.9585 57.5732 -35.2218 
565 1 -9.53387 -13.9382 27.5698 
598 2 -10.9465 -14.8969 32.7466 
584 2 -11.1539 -14.2021 29.7534 
596 2 -9.96433 -14.5037 30.6554 
214 2 -7.41724 -9.65418 28.854 
550 2 -9.7224 57.8614 -36.9931 
540 2 -12.8378 58.1233 -32.3564 
337 2 58.5424 56.2186 -37.3262 
606 1 -4.41463 -10.2347 25.649 
785 1 0.227023 -9.59114 26.0704 
605 1 -3.56521 -9.12784 25.7433 
187 3 -5.99891 -11.5107 29.9369 
613 1 -5.54986 -14.6079 26.3862 
635 2 -6.4358 -12.7842 27.1206 
783 1 0.824524 -7.12689 26.2817 
615 1 -3.22712 -14.5765 25.765 
626 2 -4.95408 -10.7819 27.6817 
638 2 -2.19286 -12.7551 26.1379 
616 1 -3.14781 -13.2948 26.1734 
611 1 -4.29594 -12.5629 26.6252 
612 1 -5.5063 -13.2989 26.7797 
786 1 0.059378 -9.48088 27.5006 
609 1 -4.22984 -11.0898 26.9095 
631 2 -2.86153 -9.07778 26.5654 
634 2 -3.27245 -10.7876 27.3842 
787 1 0.213325 -8.35998 28.357 
812 2 0.0746146 -7.62153 30.261 
184 1 -4.8543 -12.3337 30.0761 
183 1 -3.56531 -11.8252 30.3794 
206 2 -3.47018 -10.7486 30.6547 
181 1 -2.45601 -13.9602 29.9026 
182 1 -2.42568 -12.6258 30.2859 
309 3 58.5209 55.6623 -31.589 
307 1 59.6597 56.355 -33.7016 
332 2 60.3641 55.5204 -33.7137 
317 1 59.5504 54.5396 -31.5146 
326 2 60.1374 54.233 -32.4131 
331 2 60.3574 56.8157 -35.709 
306 1 59.6401 57.0935 -34.8792 
790 4 0.037261 -8.5321 29.7442 
205 2 -1.50069 -12.2119 30.52 
196 2 -0.317997 -14.2716 30.3496 
201 2 0.645483 -13.9079 28.0046 
340 2 61.7329 56.1216 -32.1129 
782 1 0.705359 -7.2013 27.6735 
811 2 0.0217513 -9.52902 30.0143 
302 1 58.676 56.5107 -32.7027 
794 2 0.378521 -11.3029 28.8025 
185 1 -4.84919 -13.683 29.7179 
788 1 -0.393942 -10.7933 28.2122 
793 2 -1.25734 -10.5219 28.935 
421 2 -2.19897 -7.67708 29.3034 
35 2 -3.14766 -14.8777 32.926 
175 1 0.248293 -14.905 27.7766 
795 2 -0.638412 -11.6196 27.5339 
305 1 58.6886 58.0736 -35.0603 
186 1 -3.70882 -14.4748 29.5885 
179 1 -1.17326 -14.8574 29.9206 
207 2 -5.79634 -14.1119 29.4574 
36 2 -1.01435 -14.1476 33.7424 
296 2 4.2443 -14.0496 25.8714 
687 2 2.06326 -11.6586 26.2861 
3 1 1.55699 -14.4544 32.1409 
4 1 1.5053 -14.4024 33.547 
6 1 2.14857 -12.1019 33.405 
25 2 4.15001 -9.93452 32.3159 
1 1 2.31483 -12.141 31.9953 
909 1 6.14082 54.2989 90.7568 
2 1 1.92 -13.3339 31.3927 
37 2 2.74077 -9.55469 32.6782 
16 1 3.26616 -9.90485 31.7375 
38 2 2.31456 -8.60392 30.3277 
918 2 3.3452 56.0394 91.5861 
39 2 4.64678 -8.42341 28.9748 
917 2 4.85963 56.9386 91.6664 
935 2 3.57018 53.9384 94.3815 
912 1 4.3787 56.0265 91.2154 
908 1 6.6821 53.0235 91.0439 
910 1 5.0886 54.694 91.5815 
907 1 6.37428 52.2989 92.2235 
927 2 6.92454 51.3332 92.4552 
906 1 5.31218 52.7506 93.0397 
911 1 4.71564 54.0007 92.7809 
914 4 3.74744 54.6353 93.6464 
925 1 5.06612 51.8075 94.2427 
929 2 4.01499 51.6402 94.4019 
18 1 4.28392 -9.25854 29.5733 
26 2 5.25571 -9.61481 29.9383 
926 1 5.72536 52.4247 95.6008 
928 2 5.41645 50.7675 94.0528 
930 2 5.37029 53.4216 95.7774 
932 2 5.37762 51.8098 96.4351 
17 1 3.38689 -8.74 30.7064 
8 3 2.70058 -11.1172 31.0563 
22 3 3.82718 -7.44887 31.2726 
936 2 4.80867 57.4583 96.3406 
28 2 1.85518 -13.3213 30.3167 
931 2 6.85955 52.4731 95.4837 
924 2 9.72022 52.6755 90.7504 
311 1 57.2845 59.0551 -38.5549 
892 2 53.4719 59.0653 25.637 
334 2 57.2977 60.0936 -38.4904 
310 1 57.9372 58.2354 -37.6405 
890 2 52.554 61.3632 25.9576 
537 1 -10.4959 62.8185 -39.1244 
558 2 -11.1443 63.6717 -39.0365 
559 2 -11.1816 62.0058 -38.8595 
525 1 -11.7896 58.1521 -34.2211 
527 1 -10.3787 58.3046 -36.203 
530 1 -11.8502 59.5602 -34.2768 
529 1 -11.0884 60.2645 -35.2034 
528 1 -10.3538 59.7774 -36.2352 
551 2 -11.1004 61.3759 -35.1543 
557 2 -8.4641 62.2861 -38.6459 
902 2 55.1621 64.603 27.4592 
539 3 -8.90863 64.3296 -37.6816 
536 1 -9.24098 62.9476 -38.1693 
535 1 -9.6384 62.0319 -36.9559 
556 2 -10.3707 62.5023 -36.3004 
543 2 -8.79605 62.122 -36.2881 
531 3 -9.81149 60.6182 -37.2458 
552 2 -12.3559 60.1262 -33.5472 
330 2 57.0157 59.1182 -34.1108 
304 1 57.7666 58.3223 -33.9693 
803 2 1.14189 -6.21167 25.8078 
333 2 58.2773 59.8248 -36.1349 
308 1 58.6481 58.8082 -36.4011 
325 2 59.6825 59.0603 -36.6562 
804 2 0.17518 -5.62298 29.1655 
801 1 0.961186 -5.85144 28.3516 
414 2 -3.20071 -4.91335 32.7234 
392 1 -0.911836 -3.55551 25.7698 
417 2 -0.657333 -3.28371 26.7998 
411 2 -4.22188 -4.77858 25.9271 
419 2 -3.82218 -3.27248 26.51 
394 1 -3.31329 -4.21703 26.4181 
805 2 0.712874 -5.00385 27.6774 
423 2 -3.35272 -2.8724 28.8619 
396 1 -2.98498 -4.7573 27.7923 
420 2 -2.48883 -6.71914 27.0788 
427 2 -1.56442 -4.55344 32.7578 
406 1 -2.20784 -5.46899 32.6957 
422 2 -2.65643 -3.78244 31.0178 
402 3 -1.97905 -6.3962 31.5809 
397 1 -2.65139 -6.12881 27.9594 
401 1 -3.09081 -3.93744 28.9315 
400 1 -2.76535 -4.46049 30.1409 
398 1 -2.41651 -6.61223 29.2117 
399 1 -2.38247 -5.81428 30.3791 
164 2 64.0757 63.3905 29.9055 
169 2 64.776 62.8101 31.5957 
142 1 64.7001 63.8235 29.1573 
165 2 63.0719 64.3991 27.8327 
141 1 66.0787 63.6223 29.3926 
148 1 65.7695 62.3589 31.4401 
156 2 65.4499 61.3078 31.2775 
143 1 64.1282 64.3737 28.0414 
138 1 65.0071 64.8909 27.0698 
136 1 64.4747 65.7585 25.9232 
159 2 61.736 66.0299 26.4726 
171 2 65.2695 64.123 33.3009 
150 1 65.919 63.3876 33.7461 
144 3 66.73 62.9891 30.4412 
149 1 66.4704 62.2594 32.7613 
806 2 2.79358 -6.4139 29.5825 
139 1 66.4015 64.8238 27.2465 
807 2 2.37546 -4.63546 29.6127 
802 1 2.35311 -5.56663 29.0187 
808 2 3.09685 -5.30974 28.2846 
170 2 67.5758 62.334 32.6351 
140 1 66.853 64.0569 28.2986 
163 2 67.9261 63.8497 28.3609 
162 2 67.2124 65.1475 26.5162 
153 2 64.0296 66.7363 26.3293 
763 2 -5.51133 -24.2178 25.6391 
768 2 -0.800905 -23.9657 26.9957 
709 1 -9.12313 -21.932 26.344 
713 2 -8.14771 -22.4262 26.4266 
715 2 -9.77963 -22.4287 27.1187 
712 2 -9.9812 -19.9318 26.2512 
708 1 -9.0245 -20.389 26.4212 
718 2 -11.014 -20.3896 27.9827 
719 2 -10.9483 -20.2542 29.9346 
700 2 -9.72802 -20.9853 31.3953 
697 4 -10.5875 -20.5244 28.9376 
561 1 -9.32813 -16.2107 26.7034 
587 2 -9.49557 -17.2704 26.9188 
560 1 -9.63987 -15.3233 27.7435 
701 2 -9.91385 -19.2915 31.7321 
716 2 -7.5764 -15.1993 30.4478 
23 3 -7.1835 -15.2432 31.3425 
575 1 -10.5774 -15.123 30.0086 
585 2 -12.4346 -15.8196 32.8675 
576 1 -11.438 -15.9875 30.9743 
597 2 -12.4848 -15.9694 30.6226 
567 3 -10.002 -15.9903 28.9589 
577 1 -11.4385 -15.8907 32.5335 
581 3 -10.8512 -17.0086 31.8331 
694 1 -9.22227 -20.1585 28.8703 
693 1 -8.5087 -19.8346 30.0923 
702 2 -8.47493 -20.0018 32.3434 
695 1 -9.17242 -20.0584 31.4756 
42 2 -7.86877 -17.5108 31.9561 
692 1 -7.18233 -19.3654 30.1675 
689 1 -8.4183 -19.9793 27.7327 
690 1 -7.12662 -19.3768 27.7606 
717 2 -6.94389 -21.559 32.4002 
636 2 -6.49485 -15.1579 26.392 
614 1 -4.45602 -15.3239 25.8924 
758 4 -3.92128 -22.5328 26.6576 
779 2 -4.96585 -22.54 26.4867 
769 2 -1.96987 -23.085 27.9888 
778 2 -3.30581 -21.8588 27.0869 
761 1 -1.02294 -22.9298 27.4265 
21 1 -6.8584 -17.6097 31.9775 
43 2 -6.55703 -17.6572 33.0323 
696 4 -6.59829 -19.0012 31.4684 
710 2 -6.62221 -19.2265 26.8158 
691 1 -6.51065 -19.0875 28.9427 
765 2 -1.46803 -21.1265 26.539 
760 1 -1.10155 -22.0106 26.1721 
766 2 -0.035155 -21.7951 25.9053 
20 1 -6.16483 -16.4612 31.1781 
767 2 -0.183645 -22.6872 28.1547 
40 2 -5.2271 -16.0603 33.021 
41 2 -5.84885 -16.8421 30.212 
204 2 -1.27136 -15.6804 30.7235 
27 2 -4.55926 -15.2093 31.7512 
281 3 -6.15234 -22.0907 32.3482 
19 1 -4.88623 -16.2321 31.9978 
176 1 -0.699813 -15.5169 28.5965 
208 2 -3.77202 -15.5349 29.321 
300 2 -5.07092 -19.5691 32.9266 
704 2 -5.01454 -17.6162 28.3974 
279 1 -5.30073 -19.6977 31.8559 
278 1 -5.26067 -21.2228 31.5009 
707 2 -3.85072 -19.5581 27.2184 
299 2 -5.42324 -21.2863 30.4045 
706 2 -3.27962 -19.9526 28.7998 
705 2 -4.83021 -20.5844 28.1515 
699 1 -4.17287 -19.7554 28.2215 
13 1 -2.35922 -15.6366 33.0643 
293 2 -1.34239 -19.6707 29.1115 
298 2 -3.80822 -22.7183 31.8084 
698 1 -5.03102 -18.5779 28.8839 
703 2 -4.56911 -18.3021 29.8209 
15 3 -3.89415 -17.3344 32.047 
12 1 -2.72965 -16.9783 32.753 
11 1 -1.7427 -17.9098 33.0487 
34 2 -1.91502 -18.9513 32.8529 
277 1 -3.81478 -21.6454 31.7172 
285 2 -3.5706 -21.6875 32.7886 
273 3 -2.98535 -20.9693 30.6654 
301 2 -4.44332 -19.1658 31.3626 
270 1 -1.64256 -20.7582 31.0074 
271 1 -0.924334 -20.0153 30.0383 
10 1 -0.539793 -17.5475 33.6236 
272 1 0.403247 -19.7388 30.2304 
269 1 -0.98241 -21.1817 32.1911 
267 1 1.04491 -20.1085 31.4291 
292 2 -1.57395 -21.6669 32.9852 
268 1 0.332578 -20.7851 32.4338 
202 2 -2.01146 -17.2384 28.7937 
203 2 -1.13928 -18.3291 26.7662 
177 1 -1.22277 -16.7501 28.1913 
178 1 -0.721499 -17.3522 27.0456 
174 1 0.732499 -15.5338 26.6413 
173 1 0.34545 -16.8131 26.273 
291 2 0.804218 -20.958 33.4043 
294 2 0.979755 -19.1905 29.4499 
29 2 1.21019 -15.3691 31.5885 
14 1 -1.16752 -15.189 33.561 
283 2 4.18837 -17.0616 25.9598 
274 1 4.54448 -16.158 26.3948 
200 2 1.51889 -15.0701 26.1025 
288 2 2.23208 -16.9309 31.8131 
289 2 2.83971 -15.3178 29.8955 
265 1 2.44406 -19.5652 31.7115 
290 2 3.15091 -20.3623 31.75 
263 1 2.66642 -17.179 30.8381 
295 2 5.65924 -16.408 26.4331 
266 3 3.99835 -15.7348 27.724 
262 1 2.92649 -18.5702 30.6364 
287 2 3.86211 -20.0981 29.3322 
286 2 4.46894 -18.5265 27.662 
260 1 3.9578 -18.1661 28.51 
259 1 3.67326 -16.776 28.604 
261 1 3.60818 -19.0385 29.5096 
264 1 3.01224 -16.3757 29.7887 
282 2 2.5369 -19.0401 32.7104 
547 2 -9.16313 54.9759 -31.0534 
533 1 -8.24395 50.862 -31.1595 
541 2 -8.52634 52.7888 -30.3157 
534 1 -8.87478 50.1834 -29.838 
538 3 -7.45812 50.3149 -30.0952 
555 2 -9.46169 51.015 -29.2782 
338 2 59.1708 53.5429 -31.1418 
318 1 60.5346 55.0581 -30.5185 
323 3 61.9009 54.5728 -30.4296 
319 1 61.733 55.8924 -31.0437 
327 2 61.8546 56.8473 -30.4913 
339 2 59.9979 55.6318 -29.7367 
5 1 1.79509 -13.1704 34.2283 
30 2 1.77295 -13.1324 35.33 
31 2 2.37567 -11.156 33.9073 
428 2 -0.985746 -6.76994 33.9352 
407 1 -1.90201 -6.10419 34.0528 
410 3 -2.8542 -6.15903 35.1044 
408 1 -1.88219 -5.11132 35.2999 
152 3 65.7179 61.9615 33.9548 
429 2 -1.86832 -4.04231 34.9113 
430 2 -0.958356 -5.22614 35.8783 
172 2 66.8031 63.9607 34.0962 
542 2 -9.62537 49.3935 -30.1686 
33 2 0.16695 -18.3354 33.8849 
24 2 1.02856 -15.2526 35.3726 
9 1 -0.212201 -16.2031 33.8504 
7 1 1.11646 -15.6252 34.3942 
32 2 1.90059 -16.3929 34.4241 
