ITEM: TIMESTEP
2000000
ITEM: NUMBER OF ATOMS
936
ITEM: BOX BOUNDS pp pp pp
-1.5000000000000000e+01 5.0000000000000000e+01
-1.5000000000000000e+01 5.0000000000000000e+01
-1.5000000000000000e+01 5.0000000000000000e+01
ITEM: ATOMS id type xu yu zu 
257 2 55.5611 54.0402 10.1296 
258 2 55.7527 53.1607 11.5938 
256 2 54.6904 55.2417 12.6641 
821 4 -9.92395 -7.22381 15.7096 
242 2 55.5282 57.3876 10.7928 
255 2 54.4435 56.3266 10.1303 
234 1 54.7284 56.6729 11.105 
813 1 -7.92872 -7.16179 14.2432 
832 1 -7.55903 -8.62426 14.5027 
235 1 55.3416 55.4945 11.8584 
582 3 -10.7501 -11.0252 16.4249 
842 2 -9.99373 -8.29453 15.6655 
238 3 56.7382 55.1869 11.7154 
836 2 -8.47592 -9.23558 14.4615 
230 3 53.5516 57.2054 11.8617 
236 1 55.9216 54.1601 11.1396 
580 1 -11.7391 -11.4331 15.3913 
600 2 -12.8049 -10.7819 17.2192 
736 2 51.6476 56.4618 16.6333 
579 1 -11.9981 -11.4695 16.9417 
835 2 -6.96805 -8.95316 13.6336 
599 2 -11.5345 -13.542 17.183 
601 2 -12.4788 -10.7771 14.8351 
602 2 -11.7 -12.3625 14.852 
837 2 -7.27077 -8.20646 16.6246 
586 2 -13.1356 -13.2752 17.2211 
383 2 53.6641 57.9115 17.4007 
833 1 -6.70889 -8.70151 15.8182 
838 2 -5.71189 -8.23257 15.7589 
839 2 -6.52092 -9.74031 16.1947 
499 2 -1.38602 -13.4532 16.0192 
510 2 -1.90499 -10.8199 13.5261 
495 3 -2.42463 -11.4334 16.1607 
490 1 -1.18309 -11.2865 15.474 
498 2 -0.255673 -11.3727 13.5326 
511 2 -0.142363 -11.2828 15.9276 
489 1 -0.982522 -10.6675 14.098 
491 1 -1.96978 -12.6671 15.5769 
512 2 -2.24562 -12.989 14.6042 
474 1 0.727016 -8.89377 14.6344 
481 3 -0.610508 -9.24275 14.3533 
67 2 63.1473 55.6591 16.3703 
76 2 65.5281 56.6836 17.0997 
475 1 1.12867 -7.56994 14.5401 
73 2 62.547 57.2378 14.8383 
47 1 61.779 57.246 16.8327 
50 1 62.6306 56.048 17.2527 
834 2 -6.13966 -6.97875 12.9915 
48 1 61.9114 57.7684 15.5301 
504 2 1.61749 -10.8926 15.0051 
479 1 1.71723 -9.80951 15.0441 
478 1 3.0022 -9.45754 15.4034 
503 2 3.76938 -10.1502 15.7802 
477 1 3.37 -8.09038 15.3917 
480 1 4.76739 -7.64894 15.7183 
497 2 5.38514 -7.3939 14.8353 
476 1 2.45198 -7.18682 14.7408 
653 3 3.59706 -14.2188 17.4052 
505 2 5.33071 -8.45996 16.1229 
227 1 53.2743 58.545 11.6111 
249 2 51.4714 58.3766 12.6598 
248 2 50.7933 60.7426 12.5405 
250 2 54.7883 59.112 10.161 
226 1 52.068 59.0851 12.1222 
225 1 51.714 60.406 12.0608 
818 1 -9.02833 -6.49102 14.8568 
228 1 53.9866 59.4534 10.7848 
229 1 53.7086 60.8021 10.7283 
251 2 54.3783 61.4945 10.1904 
224 1 52.591 61.2921 11.3781 
826 2 -10.2753 -3.68081 15.7165 
817 1 -9.19304 -5.13876 14.4643 
220 1 51.1767 63.9063 13.4194 
219 1 52.3377 63.5368 12.6634 
221 1 51.4137 64.5631 14.5686 
218 1 53.6343 63.9293 13.1349 
217 1 53.7724 64.5779 14.3477 
216 1 52.6269 64.9084 15.1544 
840 2 -8.96674 -2.71846 14.4113 
819 1 -10.5101 -4.42554 14.9268 
825 2 -10.9719 -3.79364 14.1589 
820 4 -8.1879 -2.91221 13.7177 
244 2 54.4547 63.6918 12.4992 
222 1 52.2411 62.8179 11.3543 
816 1 -8.25888 -4.37508 13.765 
247 2 51.255 62.9213 10.874 
239 2 52.8634 63.3492 10.6468 
243 2 54.7391 65.0075 14.6422 
223 3 52.5442 65.3615 16.4905 
824 2 -11.275 -5.14235 15.2686 
252 2 54.7166 64.9386 16.6954 
65 3 56.7876 62.7472 16.7256 
815 1 -7.20688 -5.11946 13.1604 
829 2 -7.31897 -5.22327 10.4189 
246 2 50.5386 64.8145 15.1922 
80 2 57.6004 60.452 16.3965 
743 2 51.0393 62.3677 15.7986 
60 1 58.0894 62.4727 16.0255 
231 1 53.8341 65.3811 17.1669 
82 2 58.0724 63.7121 14.2024 
61 1 57.9983 62.6586 14.4787 
362 1 54.7316 58.2166 17.1651 
370 2 54.6264 59.2922 17.2316 
814 1 -7.0394 -6.49118 13.3973 
739 1 50.2504 61.6813 16.2897 
245 2 50.2 63.6676 13.1619 
254 2 53.8591 63.0325 17.3147 
720 1 50.9048 60.8772 17.4095 
721 1 50.64 59.4794 17.3735 
830 2 -5.98905 -6.26734 11.0641 
823 1 -6.31566 -5.25143 10.849 
828 2 -6.62798 -3.46006 11.917 
822 1 -6.26156 -4.44983 12.1569 
69 2 58.9491 62.3355 13.9849 
831 2 -5.57918 -4.81785 10.1883 
827 2 -5.20289 -4.29941 12.4824 
59 1 58.5316 61.082 16.3784 
81 2 58.89 63.086 16.3818 
501 2 0.418451 -6.791 14.149 
404 1 -3.67864 0.146835 13.8711 
388 1 -1.0031 -0.973767 15.1747 
393 1 -1.92803 -1.99926 15.4512 
391 1 -0.223468 -3.45656 16.2753 
418 2 -2.97988 -1.87707 15.2653 
389 1 0.355423 -1.28633 15.4383 
390 1 0.737062 -2.47278 16.026 
415 2 1.0687 -0.527548 15.2652 
395 3 -1.33664 0.277822 14.6456 
424 2 -3.39747 0.605406 15.7997 
403 1 -2.77793 0.740124 14.8423 
74 2 61.3111 59.4173 14.2665 
392 1 -1.58499 -3.2216 15.9599 
51 3 59.6444 60.6341 15.5219 
49 1 61.2017 58.8801 15.214 
44 1 60.2752 59.4937 16.0693 
425 2 -3.11601 -0.673153 13.3562 
409 3 -5.09939 0.392344 14.1465 
405 1 -4.74831 1.03505 12.9595 
419 2 -0.33435 -5.61486 16.6519 
394 1 0.174138 -4.72822 17.0378 
417 2 -2.35892 -4.02354 15.959 
45 1 60.1104 58.9518 17.3558 
411 2 1.21266 -5.05199 16.802 
413 2 -4.92718 0.600034 11.9774 
416 2 1.8104 -2.56961 16.1927 
502 2 2.72009 -6.12718 14.5074 
483 1 5.13391 -5.15671 16.4034 
506 2 5.59103 -4.86325 15.4127 
507 2 5.25507 -3.12717 17.1308 
484 1 4.99909 -4.18633 17.3787 
482 1 4.71814 -6.43995 16.7105 
741 2 49.8876 59.1866 16.5966 
742 2 49.989 60.999 15.4729 
745 2 48.2142 61.8915 17.3248 
740 1 48.9775 62.5399 16.8101 
746 2 48.3942 62.948 15.9405 
240 2 54.2037 66.418 17.2353 
412 2 -2.90734 1.82817 14.8652 
426 2 -4.44447 2.08222 12.914 
670 2 2.77102 -15.9817 16.1612 
661 1 3.4846 -15.637 16.9264 
683 2 5.61799 -15.6708 17.1184 
684 2 4.59403 -16.1493 14.2328 
671 2 6.28864 -16.3291 14.815 
662 1 4.83107 -16.2071 16.5895 
663 1 5.26596 -16.5767 15.0775 
667 3 4.86462 -17.5248 16.0569 
737 2 50.8149 55.2281 17.6948 
730 1 51.4102 56.1387 17.6553 
738 2 52.3228 56.0565 18.2695 
578 1 -12.2193 -12.8078 17.6492 
381 2 54.9329 56.011 17.6702 
633 2 -9.20639 -10.5281 22.5068 
607 1 -9.09274 -12.2486 23.7113 
608 1 -8.52863 -11.2114 22.9954 
632 2 -10.2176 -12.3639 23.7384 
360 1 55.5244 56.4135 18.5494 
469 2 52.0576 56.2337 20.5647 
455 2 51.8641 55.4663 22.8737 
375 2 55.0793 53.724 18.4862 
374 2 55.4874 51.4159 19.1301 
448 1 52.2291 57.2127 21.0304 
446 1 52.2673 56.3373 23.3968 
452 3 54.3953 56.205 22.0124 
729 1 50.429 57.173 18.2655 
606 1 -8.36168 -13.1395 24.5156 
574 3 -12.1369 -12.3607 19.0922 
571 1 -12.3086 -13.3166 20.1198 
593 2 -11.6071 -11.9018 21.5925 
594 2 -13.0867 -14.977 19.0309 
570 1 -12.0251 -12.937 21.4202 
572 1 -12.8105 -14.6456 20.0359 
569 1 -12.3004 -13.645 22.5374 
447 1 53.1381 56.9681 22.2803 
438 3 51.3241 57.3212 23.8913 
467 2 52.9496 55.9064 24.1176 
748 2 54.7319 56.7848 21.2874 
431 1 51.6145 57.9608 25.1297 
350 1 56.0148 53.5123 18.8678 
735 2 50.1369 56.7903 19.2412 
369 2 54.7396 56.2851 19.3374 
627 2 -8.03678 -8.18459 22.7454 
349 1 56.2542 52.1668 19.2294 
639 2 -8.36448 -9.05902 21.4198 
345 1 57.0091 54.4748 18.9662 
348 1 57.5864 51.8177 19.6064 
352 3 56.87 55.8828 18.7945 
335 2 55.7573 56.1996 -39.5749 
343 2 52.2913 53.6778 -40.0005 
351 1 57.8358 50.3664 20.048 
605 1 -6.99385 -12.9446 24.4426 
603 1 -7.13708 -10.9277 23.0068 
618 1 -7.44947 -8.74862 21.9697 
592 2 -12.156 -13.2659 23.511 
376 2 57.1985 50.2387 20.9235 
456 2 51.1598 57.4815 21.3391 
609 1 -8.87361 -14.3132 25.3879 
626 2 -9.95959 -14.382 25.3832 
568 1 -12.9989 -14.9085 22.3838 
334 2 58.1217 56.8098 -39.968 
468 2 53.2508 58.0256 22.5161 
361 1 55.681 57.8769 18.2958 
382 2 56.7067 57.959 17.9225 
583 2 -13.685 -14.8434 24.4006 
631 2 -6.25235 -13.6165 24.9194 
675 2 0.783254 -10.6805 18.2136 
650 1 0.880392 -11.7794 18.2728 
372 2 59.1569 54.7964 19.3596 
346 1 58.3408 54.0901 19.2648 
347 1 58.6371 52.7943 19.5916 
604 1 -6.43378 -11.8653 23.7686 
373 2 59.673 52.5485 19.7806 
677 2 -1.66385 -11.0342 18.5821 
649 1 -0.180125 -12.6397 18.6081 
669 2 -2.36045 -12.6924 18.5682 
75 2 61.8827 55.1547 17.6239 
53 1 65.0672 56.7315 18.1078 
652 1 -1.55074 -12.0142 18.9866 
610 3 -6.53137 -9.86104 22.3172 
52 1 63.6833 56.4154 18.2867 
659 1 -2.85413 -12.5992 21.0504 
680 2 -3.57377 -13.4343 22.9068 
658 1 -2.78936 -12.8449 22.4047 
657 1 -1.78069 -12.3923 23.2438 
655 1 -0.633263 -11.5588 21.3008 
656 1 -0.663431 -11.7635 22.6619 
654 1 -1.65268 -12.071 20.4716 
681 2 -3.67897 -12.9502 20.4439 
619 1 -6.78161 -7.68855 21.0713 
640 2 -6.53178 -8.07163 20.0406 
648 1 0.0461893 -14.0109 18.5977 
630 2 -5.34172 -11.7442 23.7995 
678 2 0.228626 -11.0756 20.8808 
330 2 62.1556 56.7351 -40.7285 
679 2 0.102129 -11.3309 23.3516 
55 1 65.3857 56.9861 20.5633 
54 1 65.8117 56.9192 19.2303 
57 1 63.1455 56.4188 19.6137 
56 1 64.0265 56.6639 20.6715 
79 2 62.1338 56.0951 19.7729 
70 2 65.267 56.0039 23.2626 
78 2 63.5101 56.7678 21.7033 
660 3 -1.83202 -12.7657 24.5944 
686 2 -1.15001 -10.3702 24.9943 
333 2 60.7153 54.9145 -39.7268 
672 2 0.306537 -12.9599 25.2922 
304 1 61.5267 57.4615 -40.2126 
62 1 65.6091 57.0374 23.0281 
72 2 60.9023 57.4455 18.7597 
641 2 -5.39605 -7.63252 22.8116 
620 1 -5.51766 -7.15505 21.8164 
628 2 -4.57621 -7.21379 21.2105 
177 1 0.412836 -14.8003 22.0964 
58 3 66.2324 57.2709 21.6611 
668 3 1.07717 -10.5631 25.1479 
46 1 60.8502 57.8316 17.7193 
83 2 64.7297 57.6292 23.3916 
674 2 -0.797818 -14.6743 18.7503 
202 2 -0.510388 -14.9613 21.4616 
664 1 -0.656619 -12.439 25.4615 
665 1 -0.373526 -10.9107 25.537 
810 2 1.07982 -9.59782 25.1425 
676 2 2.96314 -11.6474 17.7303 
651 1 2.08949 -12.3209 17.9345 
646 1 2.32199 -13.6976 17.7734 
647 1 1.27753 -14.5135 18.1523 
194 3 3.49161 -9.92015 19.6714 
509 2 3.77747 -7.65264 18.2239 
77 2 66.9265 57.0682 19.0787 
210 2 2.44293 -10.4218 21.597 
197 2 2.93275 -12.6056 20.2185 
200 2 3.4868 -14.2164 24.4806 
174 1 2.61487 -14.4244 23.7962 
190 1 4.47615 -9.679 20.6727 
198 2 5.51036 -10.1359 20.8076 
211 2 4.52838 -8.82685 21.4031 
209 2 4.47722 -12.2682 20.3564 
189 1 3.26768 -10.6583 20.8988 
178 1 1.41439 -13.8965 21.8133 
188 1 3.5931 -12.1425 20.9316 
180 3 3.60211 -12.7654 22.2813 
173 1 2.50601 -13.6397 22.6607 
90 1 7.09504 -10.7507 24.2777 
89 1 5.70679 -10.7041 23.9872 
115 2 5.31319 -11.2186 23.1222 
88 1 4.91744 -9.83175 24.71 
114 2 3.86187 -9.80019 24.3965 
95 1 7.40066 -13.1377 23.4875 
122 2 6.48644 -13.2343 21.445 
203 2 1.42617 -13.3346 20.8136 
84 2 67.5883 56.5859 23.7841 
100 1 6.66665 -13.7285 22.4107 
91 1 7.62424 -9.86219 25.2484 
93 1 7.94044 -11.715 23.4388 
118 2 7.94574 -11.3558 22.3979 
869 2 7.365 -8.11945 22.6412 
870 2 7.70792 -6.98415 23.9683 
63 1 66.7762 57.3178 24.0043 
867 2 5.01136 -7.25536 23.1935 
66 3 66.3594 57.4661 25.4085 
96 1 7.64232 -14.0078 24.5627 
110 2 8.96247 -11.7657 23.8315 
116 2 8.72168 -9.95571 25.4319 
99 1 5.984 -14.9538 22.5275 
864 1 7.19732 -7.06959 23.0057 
119 2 8.24747 -13.7678 25.4338 
734 2 49.512 57.2065 17.6546 
841 2 -8.12794 -2.53383 17.6529 
722 1 51.0501 58.5807 18.3397 
727 4 52.8637 58.23 20.083 
747 2 53.927 58.6656 20.1862 
723 1 52.0253 59.0783 19.2878 
366 3 55.4788 58.7052 19.5588 
902 2 56.1771 59.4577 22.5734 
539 3 -9.55353 59.9383 -41.9868 
232 1 53.8218 64.7621 18.6122 
241 2 53.9847 62.5877 19.0045 
749 2 51.5563 63.4188 17.7122 
728 4 52.0659 62.8756 18.5238 
253 2 52.9944 65.2001 19.1312 
233 1 53.522 63.2877 18.3207 
725 1 51.7345 61.4731 18.3854 
237 3 55.1912 64.879 19.2953 
750 2 55.5208 64.0076 19.083 
724 1 52.285 60.4777 19.2812 
726 1 52.8782 61.0851 20.5785 
151 3 56.1622 61.7519 19.366 
167 2 56.3916 63.0154 21.1882 
733 2 53.9828 61.1819 20.4951 
731 2 52.6247 60.4043 21.4497 
732 2 52.5458 62.0987 20.7599 
903 2 55.8908 60.8635 19.6318 
536 1 -8.7652 60.6181 -40.9363 
146 1 56.9744 62.4631 20.4154 
154 2 57.4357 64.1309 19.2265 
889 2 56.2867 63.9383 23.4752 
557 2 -9.16323 61.5635 -40.5083 
537 1 -7.22491 60.8385 -41.2065 
884 1 57.0319 64.5242 23.9978 
168 2 57.1361 60.5057 21.283 
147 1 57.7716 61.4148 21.287 
556 2 -8.5031 58.7671 -39.8599 
535 1 -8.79602 59.8025 -39.6135 
890 2 56.7768 65.5312 23.7 
843 2 -8.83206 -6.71543 20.2254 
885 1 56.9451 64.349 25.5501 
882 4 58.0605 61.8389 22.6959 
432 1 50.947 59.1821 25.347 
543 2 -9.8904 59.5346 -39.4228 
145 1 58.0013 63.4897 19.8626 
458 2 50.2698 59.4898 24.5625 
559 2 -6.70173 61.1551 -40.3404 
558 2 -6.73005 59.9052 -41.4545 
68 2 58.6089 60.9955 17.5096 
877 1 58.4534 64.2346 23.4601 
624 3 -6.64183 -6.33604 21.4307 
166 2 58.2034 64.2501 20.5944 
329 2 62.6136 59.0598 -40.9887 
155 2 58.7003 61.097 20.7096 
420 2 -1.71 -6.15009 18.6872 
396 1 -0.0780073 -4.69503 18.5277 
71 2 59.3533 59.3249 18.0283 
878 1 58.9433 62.9867 22.921 
137 3 59.1655 62.9101 19.19 
397 1 -1.06001 -5.42929 19.2374 
130 1 60.3201 63.7173 18.9602 
131 1 61.4992 63.0363 18.5757 
132 1 62.6082 63.789 18.375 
158 2 63.5502 63.3088 17.9884 
157 2 61.5067 62.0173 18.3219 
398 1 -1.20971 -5.19458 20.5971 
421 2 -1.90148 -5.79958 21.1208 
879 1 60.2555 62.9193 22.4634 
886 2 60.8453 61.29 20.9348 
881 1 60.8145 61.546 22.0367 
905 2 62.4941 62.989 21.3314 
880 1 61.1628 64.0319 22.4188 
883 4 62.4064 63.9298 21.7561 
888 2 61.7974 61.3177 22.4495 
887 2 60.1792 60.7128 22.4583 
904 2 62.8984 64.8691 21.8223 
399 1 -0.428273 -4.30525 21.3443 
402 3 -0.661997 -4.26874 22.7315 
406 1 0.120266 -3.27787 23.4874 
400 1 0.456562 -3.55424 20.6324 
414 2 0.3246 -2.30878 22.9169 
401 1 0.650207 -3.73059 19.2317 
875 1 60.695 65.1554 23.1297 
876 1 59.4077 65.248 23.7228 
135 1 60.3566 65.0825 19.2834 
133 1 62.654 65.1585 18.6231 
407 1 -0.533339 -3.06061 24.8453 
165 2 65.7435 64.2924 19.8614 
160 2 59.455 65.5561 19.7302 
427 2 1.22202 -3.48637 23.6547 
143 1 65.3577 65.1621 20.376 
428 2 -1.64242 -2.81949 24.7762 
142 1 65.7904 65.3961 21.6477 
303 1 61.7654 58.8339 -40.3195 
161 2 64.663 65.3705 17.7636 
134 1 61.5261 65.8215 19.1582 
899 2 63.1321 65.7312 24.5256 
896 2 59.0985 66.2201 24.1182 
136 1 63.9691 65.9413 18.3951 
339 2 61.9567 63.6646 -39.8487 
422 2 1.06098 -2.80032 21.1052 
138 1 64.5042 66.1523 19.7922 
429 2 0.179089 -5.09267 25.3235 
309 3 61.6024 61.1506 -39.6159 
302 1 61.1332 59.8332 -39.5707 
338 2 59.7862 62.3193 -39.8152 
164 2 66.5198 64.731 21.9986 
423 2 1.3885 -3.14071 18.6868 
487 1 4.19975 -6.67238 18.0009 
868 2 7.9008 -6.55707 22.3033 
873 2 3.89454 -6.78729 25.0118 
866 2 5.39394 -6.4482 21.7693 
863 1 5.76061 -6.51008 22.8554 
485 1 4.48203 -4.3215 18.6565 
486 1 4.07291 -5.64234 18.9409 
488 3 4.3389 -3.17125 19.4978 
86 2 68.269 58.2446 22.6128 
852 4 3.36627 -5.92194 24.7267 
844 1 5.48409 -5.24404 23.6637 
64 1 67.6278 58.5303 23.5004 
849 1 4.428 -4.9392 24.5199 
845 1 6.52027 -4.28262 23.4732 
508 2 3.65988 -5.93185 19.957 
500 2 4.79545 -4.07845 21.4424 
513 2 3.24213 -4.27236 20.9853 
492 1 4.01901 -3.49433 20.8768 
496 3 2.5842 -2.37561 22.3324 
85 2 66.8838 59.2773 23.1663 
848 1 4.48459 -3.67357 25.1309 
493 1 3.59576 -2.23248 21.6154 
514 2 4.1555 -1.26676 21.3736 
847 1 5.39823 -2.61854 24.93 
846 1 6.44818 -2.98693 24.0127 
851 4 5.35078 -1.32221 25.5613 
865 2 7.32661 -4.53328 22.8301 
169 2 66.8645 64.6998 24.0831 
860 2 6.16833 -0.466896 22.7584 
853 1 7.45351 -1.93634 23.5323 
854 1 6.97872 -1.01178 22.37 
861 2 6.55416 -1.54138 21.5075 
862 2 7.75245 -0.298654 22.1595 
859 2 7.73406 -1.31609 24.4103 
858 2 8.37351 -2.47976 23.2627 
156 2 68.0081 65.3792 23.2828 
148 1 67.2517 65.7259 23.9712 
149 1 67.8825 66.1228 25.2863 
744 2 49.2285 63.3313 17.5412 
894 1 61.4867 66.4883 23.1078 
898 2 62.0616 66.5842 22.1351 
140 1 64.7566 67.5525 21.7182 
139 1 64.2262 67.3652 20.4609 
162 2 63.695 68.2641 20.0361 
153 2 63.9048 66.9075 17.7763 
159 2 61.5047 66.9253 19.3984 
163 2 64.5529 68.523 22.1483 
897 2 60.7926 67.3573 23.0314 
895 1 62.4624 66.6186 24.361 
141 1 65.6061 66.6154 22.3441 
901 2 62.9592 67.5867 24.4634 
900 2 61.8543 66.7124 25.2627 
144 3 66.3735 66.8483 23.4928 
170 2 68.3744 67.1325 25.2348 
718 2 -4.8296 -25.0012 23.2086 
697 4 -4.88016 -24.4348 24.1115 
708 1 -2.82004 -24.1838 21.9209 
711 2 -2.91604 -25.2563 22.1814 
714 2 -4.0458 -24.7921 20.059 
709 1 -3.99837 -23.9733 20.8264 
713 2 -4.9556 -23.9971 21.3138 
694 1 -3.79085 -23.5481 24.2684 
712 2 -1.79276 -24.1438 21.4742 
689 1 -2.93501 -23.2283 23.1312 
719 2 -5.29667 -24.6953 24.9999 
573 1 -13.1728 -15.4614 21.0847 
595 2 -13.8331 -16.2879 20.8514 
611 1 -8.35325 -15.6382 24.7843 
589 2 -11.5734 -17.2757 22.2051 
566 1 -13.6508 -15.5949 23.607 
563 1 -12.797 -16.8871 23.9737 
564 1 -11.8429 -17.6005 23.2281 
616 1 -8.73978 -16.0152 23.4979 
638 2 -9.41399 -15.3885 22.9163 
565 1 -11.1178 -18.6201 23.8978 
590 2 -10.4248 -19.2747 23.3032 
560 1 -11.2605 -18.9568 25.2644 
596 2 -9.50488 -20.9149 24.7543 
584 2 -8.64033 -19.4814 24.7754 
575 1 -9.16938 -20.086 25.4548 
644 2 -7.31311 -22.4403 23.4303 
615 1 -8.21524 -17.1633 22.9413 
637 2 -8.52345 -17.499 21.9331 
591 2 -14.6637 -15.9195 23.4059 
368 2 57.3013 49.6664 19.3786 
562 1 -13.158 -17.4609 25.2329 
612 1 -7.48345 -16.4233 25.5829 
642 2 -8.09732 -20.1545 21.7666 
614 1 -7.25074 -17.92 23.597 
613 1 -6.95883 -17.4908 24.9456 
629 2 -7.0089 -19.3377 20.9443 
621 1 -7.0427 -19.8727 21.9313 
205 2 -3.31314 -15.48 24.6048 
176 1 0.463018 -15.4875 23.3406 
377 2 58.7013 49.6568 22.5058 
715 2 -3.97419 -23.0351 20.1694 
645 2 -5.6042 -22.5073 23.5779 
623 1 -6.39925 -22.3948 22.8665 
182 1 -2.61846 -15.8536 25.3316 
625 3 -6.3456 -22.3557 21.4066 
779 2 -6.55586 -20.936 25.0943 
354 1 59.4601 49.4737 21.7071 
378 2 60.6529 48.3527 23.0348 
355 1 60.6038 48.7242 21.9786 
353 1 59.2325 49.9016 20.3747 
617 3 -6.69084 -19.1303 23.1714 
371 2 63.1752 47.2265 19.2531 
367 3 65.6385 47.8863 20.0241 
379 2 62.2046 48.827 19.088 
380 2 60.205 49.9875 18.3966 
384 2 63.0454 45.8194 20.0443 
364 1 64.8366 46.8653 20.6076 
643 2 -5.11967 -20.7068 22.1934 
358 1 60.2783 49.6392 19.4296 
622 1 -6.12307 -21.1048 22.0329 
356 1 61.5942 48.3875 21.0684 
359 3 62.7131 47.5802 21.3618 
357 1 61.3628 48.9511 19.7816 
363 1 63.3759 46.8425 20.2632 
365 1 65.972 46.5888 19.4996 
386 2 65.6781 46.1811 18.541 
710 2 -1.76096 -21.6512 22.1266 
690 1 -2.28125 -22.0063 23.0692 
704 2 -2.10144 -19.365 22.9521 
691 1 -2.36395 -21.1083 24.1605 
693 1 -3.62897 -22.7467 25.39 
698 1 -1.69904 -19.8043 23.9299 
705 2 0.130186 -20.7382 23.1603 
699 1 -0.113285 -20.039 23.9227 
707 2 0.52115 -19.1504 23.8518 
692 1 -2.9338 -21.5177 25.3744 
703 2 -1.97869 -19.041 24.6882 
706 2 0.173662 -20.5382 24.8631 
636 2 -6.17398 -18.0742 25.4529 
181 1 -1.27245 -16.2808 25.0715 
385 2 65.1262 46.5893 21.6422 
204 2 -1.57517 -15.812 22.9509 
179 1 -0.790802 -16.3108 23.636 
196 2 -0.691936 -17.3805 23.2115 
201 2 1.6748 -15.8157 25.0761 
175 1 1.61717 -15.3077 24.1289 
387 2 66.7327 45.928 19.9123 
673 2 1.28686 -15.5706 18.2136 
682 2 2.98931 -16.3752 17.5297 
121 2 5.36229 -15.2776 21.7025 
97 1 7.00661 -15.245 24.6379 
98 1 6.16268 -15.7663 23.641 
113 2 4.96723 -17.4384 21.6652 
105 1 4.62936 -17.4999 22.725 
126 2 3.64201 -16.9179 22.6062 
101 3 5.58325 -17.0555 23.776 
109 3 3.36744 -19.5403 22.1719 
106 1 4.41874 -18.9309 22.9482 
127 2 5.18413 -19.4185 23.567 
128 2 2.40057 -18.8148 24.0406 
107 1 3.03409 -19.506 23.5527 
129 2 2.9941 -20.3468 24.2138 
120 2 7.09334 -15.8601 25.5813 
312 1 56.5405 55.6015 -39.1083 
344 2 51.0085 53.7659 -38.8457 
311 1 57.8715 55.9383 -39.3457 
634 2 -8.58336 -14.2192 26.4395 
322 1 51.7955 53.1265 -39.1699 
461 2 52.817 56.479 26.0538 
436 1 52.4182 57.5003 26.1681 
316 3 54.7635 54.2135 -38.2269 
313 1 56.1382 54.5201 -38.2905 
321 1 52.8535 52.8 -38.0043 
342 2 52.4946 53.1754 -37.0615 
341 2 54.6153 52.152 -38.8925 
320 1 54.3502 52.7994 -38.0837 
328 2 54.7739 52.1745 -37.2474 
546 2 -8.05467 55.2942 -32.4879 
552 2 -8.93096 56.8672 -35.6843 
336 2 56.9705 52.8932 -37.0636 
314 1 57.1812 53.7699 -37.7293 
324 3 52.1658 51.8165 -38.7642 
542 2 -8.1095 51.181 -34.7035 
534 1 -7.55415 50.2248 -34.3762 
555 2 -7.40405 50.3477 -33.2802 
547 2 -7.06759 53.1692 -32.9537 
521 1 -7.24824 55.2218 -33.2143 
530 1 -8.42386 57.8482 -35.756 
551 2 -9.11389 58.1207 -37.7921 
548 2 -8.48404 57.4961 -32.958 
523 1 -7.49971 57.7069 -33.397 
460 2 53.2624 57.8181 28.1717 
308 1 60.3105 55.5575 -38.9185 
315 1 58.5313 54.0346 -37.9256 
520 1 -6.78028 56.3594 -33.8199 
522 1 -6.70363 53.9748 -33.5405 
554 2 -6.22296 50.5687 -36.0506 
541 2 -5.72787 51.6794 -33.3014 
533 1 -6.12985 50.2965 -34.9892 
553 2 -4.46163 51.1393 -34.0111 
532 1 -5.41519 51.4928 -34.3489 
517 1 -5.7718 53.8538 -34.5886 
524 3 -5.30396 52.6501 -35.2089 
518 1 -5.29985 55.0287 -35.1445 
809 2 -2.19511 -11.7586 27.5892 
666 1 -0.651817 -10.5807 27.0207 
789 4 -2.02393 -10.7235 27.613 
337 2 59.2971 53.4029 -37.4816 
794 2 -3.36503 -12.772 28.8903 
519 1 -5.80663 56.2713 -34.8076 
545 2 -5.4314 57.0796 -35.3805 
310 1 58.857 55.1719 -38.7356 
795 2 -2.88192 -13.4737 30.3989 
331 2 59.1405 57.6237 -37.6863 
325 2 60.8903 55.1656 -38.102 
306 1 59.882 57.9956 -38.4629 
305 1 60.6133 57.0513 -39.2171 
785 1 -2.00833 -10.3699 29.0467 
788 1 -2.4742 -12.7539 29.6007 
793 2 -1.58973 -13.286 29.1636 
786 1 -2.04705 -11.3333 30.06 
812 2 -1.92966 -13.0142 32.0559 
787 1 -2.0222 -11.0397 31.4446 
790 4 -2.04981 -12.0429 32.4298 
811 2 -1.91121 -11.7084 33.412 
782 1 -2.00772 -9.66599 31.8507 
784 1 -1.94086 -9.02601 29.5198 
801 1 -2.1426 -9.23327 33.2931 
783 1 -2.03053 -8.6429 30.8715 
544 2 -4.57796 55.003 -35.8838 
935 2 0.642101 51.7645 97.1209 
685 2 -0.745729 -12.8557 26.4828 
929 2 -0.0979669 50.6372 95.5957 
914 4 0.824497 52.7691 97.0355 
688 2 0.0765948 -11.0528 27.6268 
917 2 0.864608 55.2786 97.1061 
687 2 -0.265114 -9.54433 27.1464 
925 1 0.706438 50.6563 94.8344 
798 2 0.347826 -7.56063 28.1251 
803 2 -1.94534 -7.63311 31.1656 
195 3 -2.39587 -14.8957 31.5698 
918 2 1.15297 56.3418 95.7555 
797 2 -2.08347 -8.14501 27.5475 
791 1 -1.83656 -7.82271 28.594 
911 1 1.13052 53.1196 95.6732 
796 2 -2.76012 -7.1518 28.7911 
792 1 -0.460673 -7.11472 28.69 
799 2 -0.185239 -6.91518 29.6772 
928 2 0.171622 50.2909 93.9536 
805 2 -2.94304 -8.46947 33.2466 
808 2 -0.0895515 -8.08524 33.3856 
87 1 5.37477 -8.94407 25.7094 
39 2 2.26331 -11.2901 33.4403 
18 1 1.91442 -12.3062 33.1479 
25 2 1.75228 -14.9242 33.4146 
912 1 1.57656 55.4839 96.2896 
92 1 6.72906 -9.02662 25.9636 
921 2 2.60693 53.0872 91.0715 
920 2 3.21905 54.6332 91.4094 
874 2 2.2384 -7.48908 25.8961 
94 3 4.49372 -8.13381 26.5055 
117 2 7.17699 -8.42779 26.7532 
922 2 4.92876 52.6023 90.7895 
924 2 5.42808 53.6442 92.0263 
916 1 4.65418 52.9774 91.8069 
923 2 4.66183 52.0617 92.4934 
123 2 5.89183 -7.97559 28.264 
102 1 5.18815 -7.43442 27.6369 
915 1 3.19172 53.6511 91.8066 
933 2 3.16477 56.0023 92.645 
927 2 1.94137 51.5596 92.7544 
919 2 2.5888 55.8665 96.6044 
26 2 2.86268 -12.7726 32.7656 
906 1 1.26003 52.1038 94.6776 
910 1 1.68533 54.3887 95.2513 
907 1 1.8438 52.383 93.4588 
104 1 3.5636 -8.02496 29.3857 
125 2 4.45311 -8.74379 29.6022 
913 4 2.62892 56.0465 93.5789 
909 1 2.29648 54.7262 94.0172 
908 1 2.44555 53.6364 93.1569 
275 1 6.98471 -9.66513 31.076 
112 2 3.15298 -7.7072 30.3258 
280 3 6.6646 -8.24828 30.9456 
296 2 7.99292 -10.0906 31.1005 
276 1 6.83303 -8.73581 32.2878 
297 2 7.80894 -8.60595 32.8392 
284 2 6.04293 -8.91638 33.0363 
266 3 6.11367 -11.6404 29.9273 
274 1 5.88829 -10.7478 31.0865 
286 2 4.43235 -12.7433 31.7897 
259 1 5.85468 -13.0192 30.139 
283 2 5.89333 -11.1966 32.0621 
295 2 4.95598 -10.2165 31.1744 
289 2 7.20436 -13.6308 28.5929 
260 1 4.98062 -13.4701 31.1704 
264 1 6.4815 -13.9847 29.3407 
261 1 4.81566 -14.82 31.4108 
893 2 57.2249 63.4027 25.9813 
891 2 55.905 64.5508 25.8705 
435 1 52.6213 58.2153 27.3596 
464 2 55.4645 62.6257 26.8084 
445 3 54.9228 65.1635 27.5005 
441 1 54.5417 62.7599 27.3634 
442 1 54.1169 64.0461 27.7994 
463 2 54.2902 60.6052 27.2705 
440 1 53.9147 61.5875 27.6802 
443 1 52.8425 64.1358 28.3589 
525 1 -7.60091 58.4125 -34.7812 
529 1 -8.42563 58.5572 -36.96 
439 1 52.7176 61.6738 28.4026 
434 1 51.9485 59.4814 27.5231 
437 1 51.9794 60.3501 28.7537 
454 2 52.3536 59.8266 29.6401 
531 3 -7.94254 60.4104 -38.591 
528 1 -7.92453 59.8412 -37.2985 
527 1 -7.20614 60.3259 -36.2305 
444 1 52.1473 62.9472 28.6669 
465 2 52.4324 65.0889 28.6988 
466 2 51.1239 62.9862 29.1211 
526 1 -7.00498 59.648 -35.0349 
892 2 57.5577 65.1147 26.0795 
433 1 51.1233 59.9417 26.4914 
462 2 50.9987 60.583 29.13 
459 2 50.5895 60.9032 26.5816 
550 2 -6.70388 61.2482 -36.4404 
327 2 63.242 63.8402 -37.8204 
408 1 -0.359773 -4.28833 25.807 
410 3 0.17232 -2.9684 26.0893 
549 2 -6.47124 60.1405 -34.1951 
540 2 -6.84787 58.3565 -32.6743 
307 1 60.169 59.3728 -38.6421 
430 2 -1.29615 -4.64444 26.2454 
326 2 60.0374 61.9085 -38.1855 
317 1 60.6203 62.1644 -39.103 
332 2 59.6305 60.0401 -37.9904 
340 2 62.0696 62.8271 -36.9579 
318 1 61.3354 63.5141 -38.9789 
323 3 61.1107 64.5656 -38.0375 
319 1 62.1493 63.6583 -37.6542 
800 2 -0.473775 -6.13218 28.2117 
171 2 65.8058 65.7574 26.0174 
871 2 4.41465 -1.06613 25.8579 
855 2 3.73154 -3.14371 27.1585 
103 1 4.14567 -6.80353 28.5791 
850 1 3.35775 -3.3229 26.1362 
857 2 2.82549 -2.33557 25.8426 
150 1 66.7673 66.0621 26.411 
872 2 5.34523 -1.13964 27.6405 
494 1 6.13354 -1.14229 26.8281 
856 2 2.63427 -4.11063 26.2855 
934 2 2.94671 58.4902 92.0883 
124 2 4.76428 -6.35256 29.357 
108 3 3.12174 -5.94605 27.8967 
111 2 5.94946 -6.64591 27.4156 
516 2 6.77684 -2.03262 27.0594 
515 2 6.72238 -0.244807 26.908 
152 3 67.9928 65.2654 26.4261 
472 2 55.4276 68.1932 25.6638 
473 2 57.1062 68.4079 26.3356 
449 1 54.508 66.5082 27.964 
470 2 53.7281 67.0389 27.3878 
451 1 56.0477 68.3422 26.6084 
457 2 54.0238 66.6814 28.948 
453 3 55.4918 68.8723 27.8119 
471 2 56.5926 66.9873 28.3516 
450 1 55.6872 67.4569 27.89 
172 2 66.6507 67.0307 26.9425 
702 2 -4.99991 -23.7572 26.8708 
701 2 -3.34018 -23.4314 27.4744 
768 2 -9.12174 -23.0233 32.216 
588 2 -14.0401 -17.0236 25.7867 
561 1 -12.3133 -18.3479 25.8824 
635 2 -7.17971 -16.1052 26.6375 
780 2 -8.52094 -15.608 29.1431 
767 2 -9.2275 -21.6538 32.9341 
761 1 -9.2493 -21.9769 31.9395 
769 2 -10.3188 -21.8668 31.5106 
567 3 -10.417 -19.7126 26.1265 
587 2 -12.5839 -18.6614 26.926 
598 2 -9.38856 -22.0626 27.2969 
758 4 -9.5795 -20.4684 28.5444 
778 2 -10.135 -19.7622 27.9074 
585 2 -7.94309 -21.7653 28.1318 
577 1 -8.71511 -21.2918 27.6257 
576 1 -8.06436 -20.5937 26.3843 
753 1 -8.27231 -20.0906 30.6838 
754 1 -8.91762 -19.6584 29.534 
755 1 -8.91363 -18.22 29.4566 
762 2 -10.8538 -17.7679 28.4691 
757 1 -9.77868 -17.659 28.2998 
597 2 -7.55526 -19.6863 26.752 
763 2 -9.52122 -18.2016 27.3277 
764 2 -9.72077 -16.6216 28.0984 
756 1 -8.48959 -17.2793 30.4137 
760 1 -8.06821 -21.5494 31.0312 
752 1 -7.76255 -19.2698 31.6525 
751 1 -7.90695 -17.8656 31.5846 
759 4 -8.47066 -15.8744 30.0992 
766 2 -8.00628 -22.172 30.1964 
772 2 -7.36244 -19.7316 32.5398 
774 2 -7.63658 -15.9758 32.5968 
765 2 -7.12712 -21.7608 31.6448 
770 1 -7.46254 -17.0857 32.814 
581 3 -7.09507 -21.5009 25.7006 
773 2 -8.0664 -17.223 33.7295 
206 2 -4.08155 -15.7194 26.8795 
771 1 -5.93121 -17.4498 33.0544 
208 2 0.53027 -17.3126 25.754 
183 1 -3.02843 -15.9175 26.6485 
700 2 -4.49815 -22.1404 27.4045 
42 2 -3.64334 -18.7307 25.837 
186 1 -0.458167 -16.8529 26.0757 
213 2 -3.0517 -17.1126 31.6826 
187 3 -2.68165 -16.4322 29.0212 
192 1 -2.35318 -16.3226 31.3273 
43 2 -4.88127 -19.93 25.9502 
193 1 -1.5066 -15.6298 32.4509 
781 2 -4.56275 -16.0581 30.1755 
281 3 -1.40037 -22.3156 28.3068 
34 2 -2.442 -22.9056 30.4503 
298 2 1.10338 -21.4511 28.835 
199 2 -0.671855 -16.3579 29.9799 
695 1 -4.16856 -23.037 26.8509 
191 1 -1.67563 -16.7429 30.067 
207 2 -0.342145 -17.283 28.1092 
185 1 -0.918197 -16.8644 27.3714 
184 1 -2.19838 -16.3996 27.6692 
212 2 -1.32467 -17.7583 30.224 
36 2 -2.8135 -18.852 33.2494 
27 2 -5.53123 -19.6226 29.7309 
40 2 -5.83758 -20.4657 28.2683 
19 1 -4.96868 -20.111 28.8982 
15 3 -3.93922 -21.0605 29.3089 
35 2 -4.11441 -19.0148 31.1838 
214 2 -0.429188 -15.7009 32.2159 
716 2 -5.75242 -17.529 28.4657 
23 3 -5.75363 -18.0865 27.7216 
14 1 -2.75723 -19.7481 32.6456 
13 1 -3.49952 -19.8343 31.4654 
21 1 -4.0618 -19.5313 26.5262 
20 1 -4.54959 -18.9866 27.9224 
41 2 -3.64526 -18.4913 28.4916 
696 4 -3.04643 -20.6221 26.5137 
717 2 -2.25995 -21.9318 28.514 
12 1 -3.41107 -20.9615 30.615 
300 2 -2.00886 -19.6921 28.1674 
279 1 -1.75864 -20.146 27.1936 
278 1 -0.696675 -21.2414 27.5654 
11 1 -2.55336 -21.995 31.0443 
301 2 -1.23841 -19.3458 26.6389 
285 2 0.0448395 -20.5244 29.4411 
277 1 0.430588 -20.6481 28.4332 
299 2 -0.0785322 -21.4653 26.7077 
10 1 -1.85434 -21.9742 32.2459 
9 1 -1.93012 -20.8135 33.0596 
30 2 0.673913 -19.06 32.8124 
33 2 -1.11547 -22.6916 32.4971 
538 3 -5.50212 48.9559 -34.6604 
776 2 -5.20367 -16.8673 32.4536 
777 2 -5.75281 -18.5528 32.8084 
273 3 1.15873 -19.5812 27.7806 
5 1 0.339576 -18.5436 33.6919 
215 2 -1.6993 -16.0643 33.4318 
930 2 2.07141 49.9211 96.4072 
932 2 1.25068 48.6694 95.3809 
931 2 2.65879 49.7014 94.7731 
31 2 1.42806 -16.789 33.2994 
292 2 1.30425 -19.5687 30.6637 
270 1 2.05784 -18.9448 28.6975 
269 1 2.09773 -19.0607 30.0918 
293 2 3.00896 -18.016 27.0611 
271 1 3.07034 -18.1889 28.1108 
926 1 1.77153 49.7156 95.3375 
294 2 4.94856 -17.093 28.3627 
272 1 4.10359 -17.6418 28.8554 
267 1 4.17794 -17.8102 30.2443 
268 1 3.16378 -18.5838 30.8448 
288 2 6.9382 -16.051 28.9448 
263 1 6.38283 -15.3259 29.5698 
291 2 3.22672 -18.7621 31.9361 
262 1 5.55698 -15.7484 30.6366 
265 1 5.4409 -17.2252 30.904 
290 2 6.37559 -17.8008 30.594 
287 2 4.16565 -15.1903 32.2076 
282 2 5.45362 -17.4234 31.9852 
804 2 -2.57144 -10.031 33.9212 
38 2 0.212071 -13.0238 34.2747 
802 1 -0.837209 -8.70325 33.9686 
806 2 -0.126128 -9.48715 34.3447 
807 2 -1.01028 -8.14149 34.9308 
17 1 1.29412 -12.9838 34.4062 
936 2 1.40653 51.8931 101.229 
22 3 1.72088 -12.3093 35.6809 
16 1 1.60509 -14.504 34.4905 
37 2 2.65442 -14.5094 34.7416 
6 1 0.823965 -17.259 34.0433 
8 3 0.555307 -15.1048 35.3352 
775 2 -5.56136 -17.2338 34.0033 
28 2 -1.17275 -16.5413 36.6613 
1 1 0.259167 -16.4639 35.0446 
2 1 -0.707862 -17.0803 35.8105 
4 1 -0.575649 -19.195 34.5542 
29 2 -1.75308 -18.7669 36.3731 
3 1 -1.05325 -18.3782 35.6442 
24 2 -1.77852 -20.7866 35.1865 
7 1 -1.08902 -20.5693 34.2797 
32 2 -0.237707 -21.2664 34.2693 
