ITEM: TIMESTEP
820000
ITEM: NUMBER OF ATOMS
936
ITEM: BOX BOUNDS pp pp pp
-1.5000000000000000e+01 5.0000000000000000e+01
-1.5000000000000000e+01 5.0000000000000000e+01
-1.5000000000000000e+01 5.0000000000000000e+01
ITEM: ATOMS id type xu yu zu 
227 1 53.864 54.0798 13.5895 
228 1 53.4896 53.0502 14.4706 
250 2 53.8702 52.0796 14.2916 
226 1 53.2417 55.3463 13.7722 
249 2 53.4361 56.1308 13.0266 
225 1 52.5099 55.5092 14.8976 
229 1 52.6953 53.1547 15.6069 
251 2 52.4137 52.3528 16.2881 
224 1 52.1894 54.4318 15.7859 
735 2 55.1789 54.7628 16.484 
239 2 50.592 55.518 16.8084 
222 1 51.1951 54.5709 16.9553 
247 2 50.4435 53.7847 16.859 
230 3 54.7869 53.9353 12.5394 
729 1 56.2312 54.6586 16.6802 
248 2 52.0232 56.488 15.1368 
452 3 56.3166 57.7408 16.4357 
738 2 56.211 52.5533 15.7629 
730 1 56.7512 53.5771 15.6676 
234 1 55.3119 52.496 12.3571 
255 2 55.8651 52.1697 13.2607 
737 2 56.6744 53.8824 14.6012 
257 2 57.4369 54.229 12.0558 
236 1 57.4106 53.5274 11.238 
235 1 56.2562 52.4116 11.2376 
734 2 56.6135 55.6467 16.4699 
242 2 54.5944 51.5732 12.2761 
256 2 55.6515 52.4471 10.3065 
258 2 57.4143 54.0998 10.2797 
736 2 57.7892 53.3692 15.9107 
238 3 57.6319 52.1202 11.4256 
667 3 -5.30881 -12.5177 15.1039 
362 1 61.4232 54.7095 16.2844 
361 1 60.6354 55.4775 17.3414 
383 2 62.4082 55.0844 16.201 
836 2 -0.463025 -9.92951 13.7516 
832 1 -1.4787 -10.2449 13.8471 
835 2 -1.49278 -10.4725 14.8869 
821 4 -4.37828 -10.1929 14.8134 
842 2 -5.28752 -9.9048 15.3204 
818 1 -3.82205 -9.12722 13.9164 
813 1 -2.47305 -9.08273 13.4941 
833 1 -1.67507 -11.5236 12.9057 
370 2 61.5969 53.6164 16.563 
366 3 59.4321 56.25 16.8483 
676 2 -3.04309 -14.083 15.641 
819 1 -6.05432 -8.20643 13.5455 
662 1 -5.40942 -13.69 14.4187 
825 2 -6.41736 -9.26849 13.6869 
843 2 -5.42256 -7.88655 17.2492 
824 2 -6.30737 -7.63517 14.4442 
817 1 -4.53224 -8.01978 13.3826 
814 1 -1.83013 -7.94385 12.9374 
834 2 -0.74776 -8.00068 12.7411 
826 2 -6.61451 -7.79737 12.6803 
663 1 -5.0343 -11.7187 13.9431 
684 2 -4.17698 -11.9217 13.2785 
837 2 -2.53477 -12.1934 13.093 
838 2 -0.78229 -12.1772 13.1271 
107 1 -0.394229 -11.0431 17.4312 
671 2 -5.73195 -11.4434 13.1926 
839 2 -1.61367 -11.2053 11.7887 
109 3 0.0421647 -11.1993 16.0713 
683 2 -5.6027 -13.8602 13.3709 
675 2 -0.688883 -13.7427 15.9031 
670 2 -5.14508 -14.8233 16.2426 
661 1 -5.27124 -14.9732 15.1531 
106 1 1.07571 -11.4868 17.008 
651 1 -2.41258 -14.8892 15.2337 
650 1 -1.04148 -14.6789 15.446 
127 2 1.34493 -12.5235 17.2093 
113 2 2.53755 -9.93353 16.4152 
681 2 3.047 -13.6064 16.2978 
105 1 2.29334 -10.6336 17.2796 
499 2 6.18938 -8.131 14.1204 
491 1 6.03546 -7.04432 14.2284 
511 2 4.52275 -7.17476 15.9112 
659 1 2.90075 -14.5731 16.7528 
669 2 1.57383 -14.31 14.604 
748 2 57.0345 58.34 16.1435 
467 2 55.4525 60.1613 17.0663 
71 2 63.378 58.9668 17.4188 
168 2 58.6162 64.8091 17.3123 
68 2 61.3012 59.3055 16.9412 
816 1 -3.97256 -6.72794 13.0461 
815 1 -2.57396 -6.7714 12.7838 
841 2 -5.8902 -5.79005 16.5179 
65 3 59.1446 59.285 15.5305 
80 2 62.0159 58.9209 15.6394 
828 2 -1.03352 -5.91998 11.4925 
840 2 -5.78373 -5.70174 13.1431 
822 1 -1.77223 -5.57494 12.2511 
820 4 -4.75099 -5.51728 12.9126 
827 2 -2.39088 -4.8236 11.7147 
823 1 -0.94882 -4.84361 13.3534 
69 2 61.5886 60.9621 13.699 
82 2 59.973 61.3383 13.5569 
61 1 60.6056 60.5901 13.8873 
60 1 60.3194 60.2465 15.3677 
59 1 61.6517 59.8815 16.0372 
829 2 -1.63091 -4.23972 14.0423 
51 3 62.5439 61.0941 16.0928 
81 2 59.9274 61.1139 15.823 
830 2 -0.158765 -4.15369 13.0125 
831 2 -0.374357 -5.55349 14.0001 
151 3 58.9544 62.833 16.4429 
147 1 59.1519 64.2119 16.5867 
146 1 60.1819 63.0885 17.1273 
167 2 61.1151 63.1393 16.5926 
44 1 63.639 61.053 16.9655 
74 2 64.3671 63.0871 16.6967 
49 1 64.5462 62.1474 17.1412 
155 2 59.3664 64.9128 15.7343 
512 2 7.08971 -6.69744 14.3888 
495 3 4.89126 -6.30441 13.7984 
490 1 4.99956 -6.44696 15.2437 
498 2 5.7293 -4.5054 15.1627 
489 1 5.23755 -5.14365 15.9427 
510 2 4.30262 -4.56594 16.0351 
481 3 5.8459 -5.39488 17.2438 
504 2 5.70335 -2.68374 16.5659 
384 2 57.098 48.2422 14.4515 
367 3 54.9277 49.6393 13.9681 
371 2 56.5234 46.7794 13.725 
363 1 56.2552 47.5356 14.5419 
364 1 55.0116 48.2282 14.0901 
385 2 54.3493 47.496 13.6686 
365 1 54.3037 49.139 15.1571 
387 2 53.2519 48.9255 15.2851 
386 2 54.8148 49.1983 16.1297 
359 3 55.9085 47.072 15.9551 
356 1 56.8926 47.1335 16.9551 
379 2 58.6372 47.6634 15.6323 
357 1 58.2584 47.4912 16.6532 
682 2 -6.22163 -15.4689 14.9909 
649 1 -0.160243 -15.6202 14.9115 
653 3 -4.41002 -16.0941 14.4385 
646 1 -3.04165 -15.9422 14.541 
647 1 -2.07423 -16.9553 14.2461 
673 2 -2.41735 -17.8709 13.874 
648 1 -0.711731 -16.825 14.3526 
380 2 60.171 48.0687 17.2829 
674 2 -0.0347186 -17.6206 13.9343 
652 1 1.34767 -15.333 14.9233 
654 1 2.04081 -15.5884 16.2178 
677 2 1.76304 -16.0032 14.1179 
678 2 1.25125 -17.6004 16.5989 
655 1 1.85187 -16.7766 16.9546 
468 2 54.9719 57.8614 18.2517 
741 2 55.2916 52.4239 17.8591 
219 1 51.7922 54.4535 18.3928 
245 2 53.5693 55.5852 17.9445 
220 1 53.0203 55.0325 18.6873 
244 2 50.1069 53.2872 19.1735 
218 1 51.0666 53.7868 19.4121 
722 1 56.4032 54.2197 18.1204 
745 2 53.5135 51.5521 19.3578 
216 1 52.846 54.3167 20.9661 
223 3 53.2357 54.0595 22.31 
231 1 54.3773 54.7786 22.8624 
252 2 55.1257 55.218 22.1549 
233 1 55.7203 52.6697 23.139 
241 2 54.9329 52.1432 22.5896 
232 1 55.0916 53.8612 23.8386 
221 1 53.5363 55.0719 19.9927 
240 2 54.1884 55.6378 23.417 
246 2 54.4161 55.6706 20.2567 
217 1 51.6536 53.6956 20.6302 
243 2 51.087 53.1563 21.4461 
739 1 55.5025 51.1879 20.2363 
721 1 55.8892 52.9945 18.5542 
720 1 56.081 52.4912 19.876 
725 1 56.7037 53.3499 20.8389 
456 2 56.7793 57.676 19.8308 
728 4 56.8989 52.9554 22.2095 
746 2 53.5911 51.8305 21.0889 
254 2 55.9829 51.9331 23.9065 
237 3 56.0967 54.6555 24.5365 
253 2 54.2687 53.4146 24.41 
750 2 55.8074 55.6073 24.4937 
723 1 57.1192 55.0446 19.0349 
749 2 57.5477 53.5302 22.8467 
724 1 57.1891 54.5669 20.3706 
448 1 57.0571 57.6536 18.7986 
550 2 -11.625 57.3561 -39.8517 
742 2 55.9445 50.7243 21.1397 
740 1 53.9378 51.1828 20.3009 
335 2 52.0264 50.9483 -40.7087 
312 1 52.5858 50.9975 -39.7617 
905 2 50.1186 56.59 20.9139 
897 2 52.4411 57.0437 21.3249 
313 1 53.6423 50.0518 -39.6492 
539 3 -10.1234 58.105 -41.7555 
899 2 50.7372 57.4814 19.6025 
894 1 52.1388 58.0171 21.2219 
35 2 -7.13847 -12.8963 25.3943 
731 2 57.2306 56.157 21.9691 
727 4 57.6801 56.3013 18.5702 
747 2 57.8703 56.1636 17.5209 
726 1 57.9509 55.5121 21.3625 
40 2 -7.03385 -14.6644 24.165 
743 2 55.7871 50.4495 19.5107 
744 2 53.4545 50.1805 20.4882 
381 2 59.1936 54.0297 18.0929 
732 2 58.6013 56.2379 20.8288 
129 2 -0.947263 -11.9087 17.9875 
382 2 61.4784 55.9782 17.8212 
372 2 62.5481 51.2204 17.8911 
27 2 -5.51949 -14.7162 24.4635 
360 1 60.2786 54.3779 18.3978 
352 3 61.3418 53.3957 18.5113 
733 2 58.5348 54.9324 22.05 
369 2 59.7721 54.8084 19.2937 
128 2 -0.409666 -10.1949 18.0893 
346 1 61.7885 51.0031 18.669 
345 1 61.0603 52.1186 19.1006 
350 1 60.0269 51.8161 19.9646 
375 2 59.4039 52.6809 20.3029 
349 1 59.6491 50.5102 20.3217 
603 1 -1.19275 -8.89245 20.1539 
608 1 -1.79964 -10.1445 20.3289 
374 2 58.7085 50.2718 20.8586 
633 2 -2.90083 -10.2813 20.3199 
607 1 -1.06829 -11.255 20.5584 
632 2 -1.58482 -12.2627 20.6718 
639 2 -4.11129 -8.36555 20.0238 
606 1 0.327053 -11.2086 20.5867 
604 1 0.1918 -8.84756 20.3458 
610 3 -1.94094 -7.71051 19.949 
618 1 -3.35603 -7.61905 20.2968 
808 2 1.04396 -8.68872 23.1716 
215 2 -1.74662 -12.1548 23.617 
193 1 -2.76469 -12.3374 24.0107 
214 2 -2.64609 -12.79 25.0408 
802 1 0.623702 -8.99612 24.1343 
806 2 -0.0524042 -8.12309 24.469 
611 1 0.428471 -13.7748 20.4687 
635 2 0.479891 -14.2125 22.606 
612 1 0.325421 -14.591 21.63 
195 3 -3.96729 -12.4052 23.2064 
630 2 0.648218 -7.85625 20.3381 
807 2 -0.0649475 -9.84256 23.9347 
192 1 -3.71305 -11.1197 23.8101 
213 2 -3.34581 -10.2505 23.2376 
627 2 -3.54775 -7.77731 21.3864 
199 2 -5.35397 -10.4854 25.0466 
616 1 0.0505797 -14.3342 19.2193 
605 1 0.974948 -9.96523 20.5462 
609 1 1.22479 -12.4773 20.6002 
411 2 -4.13422 -7.3309 25.0989 
191 1 -4.25237 -10.6703 25.1709 
416 2 -2.53895 -6.97235 23.2981 
638 2 0.0633998 -13.6953 18.3473 
794 2 0.633484 -14.641 24.8652 
121 2 4.22014 -9.17488 17.569 
101 3 3.35404 -11.6304 17.652 
98 1 4.65867 -11.2005 17.9324 
787 1 1.65111 -11.9184 25.393 
801 1 1.8253 -9.26531 25.198 
626 2 1.92327 -12.4946 21.4522 
126 2 2.12936 -9.86301 17.9932 
99 1 5.03235 -9.87053 17.8868 
122 2 6.29516 -8.18186 18.4447 
100 1 6.25306 -9.28 18.3447 
782 1 2.32142 -10.7115 25.0174 
786 1 2.30405 -13.1318 24.9955 
634 2 1.84542 -12.3859 19.7335 
680 2 4.11247 -14.0614 18.4786 
631 2 2.04867 -9.85809 20.6406 
97 1 5.80642 -11.9594 18.2448 
120 2 5.75514 -13.0009 17.9788 
796 2 5.68785 -13.0044 22.919 
784 1 4.07754 -11.992 23.8296 
96 1 7.07632 -11.4919 18.5547 
119 2 7.86905 -12.2545 18.7389 
95 1 7.27733 -10.1013 18.7906 
791 1 5.34103 -11.9915 22.9336 
803 2 3.94649 -9.82096 23.8816 
783 1 3.43257 -10.7778 24.1671 
785 1 3.55101 -13.1948 24.2814 
792 1 5.2574 -11.3458 21.4814 
797 2 6.20032 -11.5157 23.54 
800 2 6.12815 -11.5065 20.8357 
93 1 8.45496 -9.42121 19.5638 
798 2 5.12115 -10.2655 21.4874 
90 1 7.98027 -9.01713 20.9861 
88 1 7.66668 -9.16897 23.3069 
89 1 8.21624 -9.75099 22.1608 
688 2 3.43783 -14.7097 21.9194 
789 4 4.17045 -14.4827 23.9715 
799 2 4.42877 -11.7984 20.8591 
91 1 7.40513 -7.71542 20.9583 
94 3 6.70633 -7.52432 24.6991 
87 1 7.13247 -7.84902 23.4098 
804 2 2.62366 -8.48191 25.1264 
601 2 6.46747 -14.9997 24.8364 
114 2 7.70657 -9.8308 24.1991 
118 2 8.92667 -8.57319 18.9774 
92 1 7.03626 -7.14582 22.1636 
115 2 8.72529 -10.6949 22.1582 
77 2 68.7758 57.7736 22.4447 
116 2 7.2962 -7.17313 20.0615 
111 2 4.4709 -6.96908 24.4963 
658 1 3.51797 -14.8423 17.9371 
788 1 1.56217 -14.3452 25.4813 
110 2 9.39123 -10.0585 19.5501 
883 4 49.5414 56.6324 21.8224 
880 1 49.8652 57.8132 22.5237 
904 2 48.5457 56.4864 21.7981 
888 2 47.4637 57.9681 24.8575 
881 1 47.7137 57.7925 23.7926 
886 2 47.7023 56.6666 23.7449 
461 2 56.8954 62.2418 18.2316 
447 1 56.0093 58.1534 17.7966 
469 2 57.8453 58.4286 18.6352 
898 2 53.081 58.6202 21.3164 
901 2 50.8972 59.2823 19.8895 
895 1 51.4305 58.3157 19.784 
455 2 56.9939 60.0344 17.5471 
446 1 55.9977 59.6967 17.9278 
557 2 -10.3685 60.2362 -41.0957 
875 1 51.1519 58.4442 22.2848 
900 2 52.2026 58.2652 19.0663 
535 1 -9.73946 59.007 -39.4348 
876 1 51.4797 59.6981 22.8615 
896 2 52.4834 60.1354 22.6938 
460 2 56.4889 64.5114 18.845 
435 1 55.9241 63.7842 19.3459 
436 1 56.1694 62.4325 19.0232 
434 1 55.0521 64.1675 20.353 
431 1 55.3569 61.3773 19.524 
433 1 54.2828 63.117 20.9199 
459 2 53.5032 63.3364 21.6929 
438 3 55.4087 60 19.2305 
458 2 53.7365 61.0875 20.8651 
432 1 54.4327 61.8398 20.4573 
437 1 54.7641 65.6172 20.6838 
454 2 54.1724 65.641 21.6296 
462 2 54.0239 65.9693 19.9228 
159 2 57.8258 62.039 22.5212 
536 1 -9.95108 59.2628 -40.932 
161 2 56.8068 64.1586 24.5436 
537 1 -8.90065 58.7931 -42.0127 
559 2 -8.73407 59.4207 -42.9282 
889 2 51.876 61.4523 24.9615 
558 2 -7.91175 58.5365 -41.6371 
136 1 57.8629 63.7909 24.6287 
153 2 57.9128 62.7045 24.9664 
884 1 51.0416 61.5754 24.2904 
890 2 50.3256 62.0017 24.9897 
877 1 50.5251 60.3601 23.6553 
891 2 52.3274 62.2866 22.6784 
892 2 51.9339 63.5287 23.692 
893 2 50.7594 62.8878 22.6078 
885 1 51.5353 62.6797 23.2979 
45 1 64.0122 59.8552 17.5451 
72 2 65.3815 58.5247 18.5358 
160 2 58.9372 62.1235 20.4429 
134 1 58.374 62.9033 22.3563 
46 1 65.2064 59.5633 18.135 
154 2 59.7084 61.9642 18.7878 
133 1 58.4147 63.9438 23.2521 
135 1 59.0915 62.9549 21.1378 
619 1 -3.91918 -6.29799 19.8532 
624 3 -5.23666 -6.16972 19.2601 
640 2 -3.18627 -5.47582 19.7851 
145 1 60.3983 62.6918 18.6 
166 2 61.226 61.9528 18.561 
130 1 59.8033 64.0131 20.6736 
419 2 -5.53894 -6.4224 24.7347 
424 2 -3.00638 -1.21118 20.787 
641 2 -5.65578 -6.46588 21.4718 
394 1 -4.48086 -6.26581 25.1501 
620 1 -5.19285 -5.78507 20.6426 
137 3 60.5109 63.9433 19.4664 
628 2 -5.10614 -4.73916 21.0037 
403 1 -2.02376 -1.52187 21.2782 
412 2 -2.23391 -0.87809 22.1841 
418 2 -3.30638 -2.06885 23.4685 
395 3 -1.67539 -2.96168 21.3548 
417 2 -4.56073 -3.62617 24.9514 
393 1 -3.14897 -3.15691 23.4159 
392 1 -3.8526 -4.01237 24.2723 
388 1 -2.35563 -3.6814 22.3641 
391 1 -3.7258 -5.40561 24.1895 
389 1 -2.11332 -5.03689 22.4948 
131 1 59.8707 65.1149 21.5898 
390 1 -2.73188 -5.93289 23.3519 
157 2 60.5784 65.966 21.4164 
500 2 0.700089 0.306702 23.886 
415 2 -1.43223 -5.4676 21.745 
425 2 -0.845729 -1.20369 19.5786 
404 1 -0.90133 -0.777973 20.5636 
132 1 59.1529 65.1061 22.7788 
158 2 59.086 66.0226 23.4317 
409 3 -0.251008 0.359058 21.1262 
79 2 65.8124 61.3498 20.7643 
78 2 65.6942 60.5656 23.2602 
83 2 65.7006 60.2765 24.8628 
516 2 -0.625153 -1.7401 24.4695 
70 2 64.9682 58.8205 25.1273 
62 1 65.982 59.2496 25.1224 
405 1 0.474015 -0.833139 21.3859 
165 2 60.5691 63.6624 25.4728 
426 2 0.447068 -1.4428 22.3172 
48 1 65.7849 61.9698 17.7404 
47 1 66.148 60.6346 18.1491 
496 3 -1.1396 0.275139 25.3531 
494 1 -0.927139 -1.16497 25.3259 
76 2 69.0433 58.5862 20.2063 
492 1 1.27456 0.213347 24.8541 
54 1 68.0167 58.5409 22.0931 
53 1 68.1794 58.9445 20.7708 
75 2 68.1245 59.723 18.2322 
474 1 6.12828 -4.23615 18.0173 
488 3 2.34243 -0.829914 24.8774 
479 1 5.93985 -2.89173 17.6355 
58 3 67.0959 58.5331 24.3587 
55 1 67.1667 59.062 23.0372 
413 2 1.32734 -1.21218 20.7666 
503 2 6.02876 -0.746202 18.0609 
508 2 2.82416 0.901071 22.8217 
478 1 6.17609 -1.77744 18.478 
485 1 3.29764 -0.902581 23.8602 
486 1 3.54066 0.0898786 22.8688 
117 2 6.51375 -6.17039 22.1152 
73 2 66.4589 62.8019 18.0014 
50 1 67.4815 60.4532 18.8079 
52 1 67.37 60.0086 20.2868 
67 2 68.1593 61.3362 18.7649 
475 1 6.46572 -4.41447 19.3322 
501 2 6.51134 -5.38777 19.7826 
476 1 6.60142 -3.38938 20.2677 
477 1 6.46235 -2.05441 19.8187 
502 2 6.67047 -3.56464 21.3146 
497 2 6.80383 0.0073714 20.4184 
505 2 7.58917 -1.13443 21.4281 
480 1 6.60905 -0.957521 20.9415 
507 2 4.0558 -2.74963 24.4538 
506 2 5.84958 -2.97371 22.7016 
483 1 5.22813 -2.04586 22.7597 
482 1 5.37324 -1.00949 21.8373 
56 1 66.4278 60.1518 22.5145 
57 1 66.4851 60.6039 21.1844 
484 1 4.18931 -1.92907 23.6962 
487 1 4.58684 0.101007 21.9127 
509 2 4.68278 0.987727 21.3353 
123 2 5.40168 -5.82782 23.9954 
102 1 5.5023 -6.57543 24.7363 
887 2 46.8287 58.1624 23.2309 
879 1 49.0079 58.5072 23.3919 
902 2 48.5182 61.4994 24.8235 
878 1 49.2093 59.82 23.9362 
882 4 48.2684 60.4704 24.7022 
903 2 47.4231 59.9585 24.9961 
466 2 55.9944 66.6673 22.9192 
439 1 55.9957 66.5451 20.731 
444 1 56.4582 67.0508 21.9654 
443 1 57.5455 67.9096 21.9605 
465 2 57.9283 68.2863 22.8887 
463 2 56.1945 66.6791 18.6068 
440 1 56.6402 66.9584 19.5393 
441 1 57.7239 67.8073 19.6256 
442 1 58.274 68.3144 20.8243 
464 2 58.1774 68.0778 18.6564 
445 3 59.4687 69.0232 20.9347 
472 2 63.018 68.4969 19.6214 
457 2 59.6913 69.7515 18.8696 
449 1 60.2039 69.2851 19.6716 
470 2 60.4715 68.3928 19.0065 
450 1 61.4174 70.1209 20.0354 
453 3 62.3041 70.5772 19.0002 
451 1 62.9081 69.5881 19.8423 
471 2 61.2814 70.6022 21.0112 
473 2 63.5702 69.7988 20.7286 
513 2 1.60715 1.28578 24.8523 
775 2 -1.97294 -24.6958 20.1258 
771 1 -1.45853 -23.8053 20.581 
770 1 -0.0261008 -24.1029 21.2181 
773 2 -0.113356 -24.4142 22.3088 
774 2 0.504198 -24.8912 20.6841 
780 2 0.960466 -23.8434 18.8372 
777 2 -2.10775 -23.3983 21.3109 
316 3 53.8886 49.2038 -40.7224 
355 1 56.6764 46.9257 18.2707 
378 2 55.6782 46.6915 18.6163 
23 3 -6.93075 -16.6112 22.8003 
716 2 -7.17777 -17.5917 22.7857 
344 2 53.3643 47.2529 -43.6002 
322 1 54.3554 47.4336 -43.1294 
342 2 53.5041 46.4074 -41.1941 
343 2 54.6144 48.5051 -43.2809 
324 3 55.2243 46.3965 -42.6244 
321 1 54.399 46.9442 -41.5925 
328 2 54.8672 47.4199 -39.6111 
341 2 55.8247 48.2139 -40.6679 
320 1 54.7735 47.9783 -40.5432 
717 2 -8.26708 -19.143 24.4749 
705 2 -9.14379 -21.2337 23.8867 
354 1 57.596 47.1959 19.3162 
377 2 57.2817 47.0412 20.355 
699 1 -9.54804 -21.6212 24.8397 
707 2 -9.26129 -22.6594 24.8815 
706 2 -10.6992 -21.5623 24.8083 
696 4 -7.17829 -19.1463 24.5615 
300 2 -2.43771 -15.4174 22.3848 
301 2 -3.88333 -15.7358 23.3264 
776 2 -1.39014 -23.0641 19.7933 
299 2 -1.10763 -15.5062 24.3888 
279 1 -2.8474 -16.0982 23.163 
615 1 -0.195021 -15.6637 19.072 
613 1 0.101643 -15.9345 21.4628 
358 1 59.1988 47.7912 17.6224 
19 1 -6.38029 -15.3145 24.8083 
21 1 -6.78659 -17.7851 25.1117 
692 1 -6.67047 -20.2913 25.2724 
20 1 -6.25965 -16.6907 24.1288 
353 1 58.8905 47.6049 18.9892 
278 1 -2.05684 -16.0405 24.5003 
41 2 -5.19057 -16.9704 24.0741 
701 2 -4.88749 -19.1603 23.6687 
281 3 -2.28311 -17.2654 23.7768 
700 2 -3.81072 -18.9713 24.9549 
644 2 -2.53511 -19.4588 20.5928 
348 1 60.3955 49.4282 19.8785 
625 3 -1.98081 -20.8662 18.9215 
623 1 -2.06851 -20.3555 20.2777 
642 2 -1.73516 -18.289 18.2422 
629 2 -0.171924 -18.4612 17.9801 
637 2 -0.493895 -16.0137 18.1121 
645 2 -1.76701 -20.8311 21.1619 
347 1 61.4802 49.7431 18.9893 
718 2 -2.66112 -21.2846 25.1589 
693 1 -5.29071 -20.6464 25.243 
368 2 59.4946 47.8232 21.0992 
622 1 -0.903587 -20.0155 19.264 
621 1 -0.831572 -18.5545 18.86 
351 1 59.9092 47.9894 20.056 
373 2 61.945 48.9222 18.4273 
643 2 0.100063 -20.381 19.5449 
376 2 60.7427 47.2963 20.0488 
772 2 -0.34951 -22.1051 23.0379 
752 1 0.461007 -21.866 22.3365 
614 1 -0.185553 -16.4934 20.1918 
617 3 -0.52765 -17.8561 20.1728 
753 1 1.23602 -20.6464 22.4395 
761 1 -0.133824 -20.1913 24.4917 
768 2 0.0250676 -21.1864 24.9073 
769 2 -0.990291 -20.2007 23.9036 
636 2 0.0862298 -16.6186 22.3379 
767 2 -0.390023 -19.5375 25.3413 
695 1 -4.34696 -19.7505 24.3977 
702 2 -3.61204 -20.2747 23.6709 
697 4 -3.2309 -22.062 25.4694 
760 1 1.02186 -19.6166 23.6306 
751 1 0.690903 -22.7338 21.2477 
765 2 0.762366 -18.5582 23.2454 
687 2 2.5 -15.4294 23.0671 
809 2 3.76981 -15.0711 24.7801 
759 4 1.65781 -23.0982 18.8598 
781 2 1.89011 -22.3823 18.1394 
766 2 1.91357 -19.4748 24.2792 
666 1 3.57613 -15.3149 22.861 
778 2 1.74472 -18.4871 20.505 
660 3 4.09743 -15.9967 19.9664 
657 1 3.43376 -15.9995 18.7267 
754 1 2.03801 -20.2616 21.3303 
756 1 1.60397 -22.5101 20.1482 
758 4 2.53361 -18.8905 21.1319 
755 1 2.26529 -21.2764 20.3496 
779 2 2.70193 -18.6289 22.0944 
656 1 2.55437 -16.9637 18.1607 
757 1 3.37058 -20.8319 19.3404 
764 2 3.61504 -21.5841 18.648 
679 2 2.52456 -17.932 18.6654 
685 2 2.65068 -17.0663 21.1498 
672 2 4.05533 -18.0977 20.7991 
668 3 3.76049 -17.7082 23.4358 
686 2 5.28876 -16.4104 22.3142 
665 1 4.21367 -16.6856 22.4228 
664 1 3.7412 -17.0518 20.9857 
810 2 4.09631 -17.348 24.2491 
763 2 3.13644 -19.8962 18.8339 
762 2 4.34154 -20.6737 19.8569 
602 2 6.30969 -16.7027 24.8749 
580 1 6.55609 -15.8586 25.5088 
527 1 -12.3012 57.85 -39.1885 
549 2 -13.6462 56.1613 -39.2759 
525 1 -14.5528 57.8943 -38.3079 
526 1 -13.5254 57.2225 -38.9893 
314 1 54.2261 50.1058 -38.3581 
311 1 52.2162 51.9067 -38.812 
329 2 55.4308 55.8653 -38.506 
330 2 54.0501 53.9476 -38.5718 
304 1 54.0836 54.5498 -37.6515 
303 1 54.8824 55.6613 -37.6164 
302 1 54.9912 56.5346 -36.4882 
332 2 54.1255 56.7286 -34.4808 
307 1 54.197 56.1066 -35.3998 
306 1 53.3807 54.9887 -35.3785 
305 1 53.29 54.1646 -36.5158 
331 2 52.7386 54.6983 -34.5075 
32 2 -8.68221 -11.3978 30.6172 
553 2 -13.6341 54.7753 -32.2593 
9 1 -7.89018 -12.2787 28.7077 
334 2 51.367 52.5778 -38.9468 
308 1 52.345 52.9942 -36.554 
325 2 51.3796 53.3986 -36.8291 
310 1 52.8539 51.9341 -37.5404 
333 2 52.2154 52.6033 -35.5448 
24 2 -8.59617 -10.3203 29.2753 
33 2 -8.23464 -13.8424 30.1853 
10 1 -7.97869 -13.6244 29.1381 
11 1 -7.60698 -14.6452 28.2602 
12 1 -7.15432 -14.4093 26.9628 
315 1 53.8779 51.0061 -37.3543 
276 1 -12.5021 -14.7473 31.5687 
7 1 -8.01494 -11.1501 29.7277 
13 1 -7.34426 -13.0936 26.4637 
283 2 -9.88449 -12.9511 32.0343 
337 2 54.4466 50.9713 -36.4394 
280 3 -12.5672 -13.2996 31.4341 
260 1 -7.39482 -13.8429 32.5982 
275 1 -11.8504 -13.7448 32.5814 
274 1 -10.2973 -13.6213 32.7523 
286 2 -7.80867 -12.8327 32.7015 
14 1 -7.58167 -12.0522 27.3384 
36 2 -7.58437 -11.0804 27.0007 
309 3 55.7149 57.712 -36.537 
296 2 -12.2459 -13.869 33.5755 
338 2 55.7943 57.834 -34.365 
295 2 -9.99778 -12.9161 33.5739 
30 2 -7.28926 -8.69926 30.1757 
532 1 -14.6833 54.3691 -32.183 
543 2 -9.65155 57.9674 -39.3022 
266 3 -9.68377 -14.9202 32.9118 
259 1 -8.26043 -14.9521 32.7088 
554 2 -13.9646 52.4204 -31.4209 
212 2 -4.55475 -11.6091 25.7843 
790 4 0.456341 -11.9082 26.1052 
812 2 0.0106962 -12.8183 26.334 
811 2 0.255127 -10.9663 26.5138 
29 2 -5.55802 -12.6218 30.2107 
3 1 -5.45973 -11.5343 30.4137 
4 1 -6.6276 -10.7325 30.2241 
183 1 -1.93006 -9.21738 27.6396 
187 3 -3.37294 -9.67354 25.7899 
184 1 -2.79311 -10.088 27.0178 
185 1 -2.93079 -11.3644 27.625 
207 2 -3.73884 -12.0395 27.2942 
31 2 -5.15342 -7.75064 30.9096 
5 1 -6.4506 -9.35003 30.3424 
6 1 -5.24498 -8.81487 30.7128 
1 1 -4.04213 -9.56181 30.9944 
2 1 -4.24687 -10.9265 30.7749 
186 1 -2.22584 -11.7491 28.7525 
208 2 -2.42046 -12.7155 29.2514 
206 2 -1.8083 -8.19835 27.2291 
182 1 -1.17172 -9.52962 28.7415 
181 1 -1.30151 -10.8178 29.3205 
8 3 -2.75999 -9.11407 31.341 
16 1 -2.37768 -7.7336 30.9144 
28 2 -3.33019 -11.5776 30.89 
287 2 -5.36199 -12.9742 32.5037 
261 1 -5.99857 -13.9127 32.5063 
205 2 -0.565843 -8.79213 29.1545 
204 2 -0.892156 -11.9924 31.077 
179 1 -0.392761 -11.2476 30.4649 
196 2 -0.213234 -10.4772 31.2607 
38 2 -0.879975 -8.00598 32.4595 
176 1 0.916046 -11.6315 29.7988 
37 2 -2.26838 -7.47034 29.8302 
17 1 -1.14707 -7.27706 31.6835 
25 2 -3.11652 -6.9034 30.951 
290 2 -3.41491 -14.4537 32.8465 
795 2 1.07826 -14.2614 26.4564 
201 2 0.357177 -13.6578 29.5413 
175 1 1.13401 -12.9669 29.3462 
210 2 6.24288 -13.3933 25.8416 
209 2 4.96118 -11.032 26.5319 
805 2 1.40205 -9.07629 26.2039 
202 2 1.86286 -9.66558 29.6103 
198 2 8.2454 -13.7044 27.3025 
194 3 7.78153 -11.8232 26.0261 
189 1 6.57261 -12.4997 26.3778 
190 1 7.93029 -12.6265 27.1947 
188 1 5.38618 -11.8596 27.1098 
180 3 4.50043 -12.9345 27.6462 
197 2 5.82721 -11.1682 27.8757 
203 2 3.82109 -10.4206 28.3288 
178 1 3.02781 -11.1943 28.61 
173 1 3.29457 -12.5217 28.25 
177 1 1.91065 -10.7427 29.3548 
174 1 2.23199 -13.386 28.645 
200 2 2.2993 -14.3982 28.3459 
936 2 6.39177 53.7695 95.4942 
935 2 5.04751 53.4859 96.8631 
914 4 5.52414 54.0371 96.0298 
925 1 3.03344 54.7695 97.6357 
911 1 4.8701 55.2484 95.7758 
906 1 3.69598 55.6027 96.5347 
917 2 6.39326 55.3995 93.1497 
910 1 5.3236 56.2745 94.9079 
912 1 6.60817 55.9544 94.1213 
907 1 3.07623 56.8506 96.3696 
909 1 4.6834 57.5026 94.6018 
927 2 2.25703 57.0612 97.0961 
908 1 3.54783 57.7503 95.4335 
929 2 1.9216 54.8461 97.5509 
928 2 3.26356 53.7075 97.4462 
125 2 4.18722 -7.43117 26.8488 
211 2 7.8817 -12.325 28.2102 
919 2 7.18551 56.8426 93.8668 
112 2 5.96393 -7.66168 27.0426 
918 2 7.39665 55.4594 94.6364 
104 1 5.1385 -6.93182 27.0736 
600 2 5.43385 -14.7246 27.201 
522 1 -15.3835 55.989 -34.4816 
547 2 -15.1682 56.4539 -33.5065 
521 1 -15.4277 56.8532 -35.5531 
546 2 -15.3053 57.9118 -35.4601 
548 2 -16.0799 56.4753 -38.932 
523 1 -15.8658 57.1277 -38.0558 
520 1 -15.7399 56.2841 -36.8129 
517 1 -15.5573 54.591 -34.5163 
524 3 -15.3276 53.753 -33.4195 
519 1 -15.9843 54.9094 -36.9397 
518 1 -15.8522 54.1093 -35.8278 
545 2 -16.307 54.5306 -37.8783 
544 2 -16.0753 53.0362 -36.0674 
540 2 -16.6646 57.8717 -37.9122 
541 2 -15.2694 55.2296 -31.7169 
555 2 -17.0494 53.3191 -31.3758 
556 2 -8.68303 59.2479 -39.279 
531 3 -10.7537 59.8028 -38.7234 
162 2 56.8696 65.8039 26.0714 
528 1 -12.0137 59.1671 -38.7109 
551 2 -12.9 60.8071 -37.6294 
529 1 -13.0826 59.7853 -38.041 
530 1 -14.3109 59.214 -37.8488 
317 1 55.7104 58.5101 -35.2193 
326 2 56.5679 59.1224 -34.9785 
318 1 54.4999 59.3895 -35.1869 
323 3 53.7941 59.5702 -33.9623 
319 1 54.5392 60.7205 -34.3445 
339 2 54.0688 59.5069 -36.2371 
139 1 57.8825 65.7087 26.2802 
340 2 55.4731 61.1968 -33.8291 
327 2 54.1601 61.5981 -34.9464 
410 3 -7.39412 -2.24311 30.5327 
138 1 58.6114 64.6062 25.7376 
422 2 -6.69512 -4.72156 29.0132 
427 2 -6.81151 -4.5134 31.2475 
408 1 -6.30258 -1.93762 29.684 
430 2 -5.93747 -0.929045 29.559 
429 2 -5.87456 -2.4257 28.8105 
493 1 0.16007 -0.0745431 25.8512 
514 2 0.494462 -0.309298 26.835 
874 2 0.540051 -6.27878 28.3605 
22 3 -0.326365 -6.23633 31.1564 
66 3 65.302 58.5821 27.386 
396 1 -4.56756 -5.72156 26.5867 
420 2 -2.43275 -5.91699 26.8013 
423 2 -6.76645 -5.35066 26.6745 
515 2 -1.32864 -1.90813 25.9937 
401 1 -5.76506 -5.30766 27.2137 
397 1 -3.36043 -5.62895 27.2876 
414 2 -5.93017 -4.10518 32.4982 
143 1 60.0042 64.4214 25.9696 
142 1 60.7024 65.3844 26.7323 
164 2 61.8182 65.4875 26.6907 
407 1 -6.06638 -2.5666 31.0829 
428 2 -5.49531 -1.9049 31.7496 
400 1 -5.71967 -4.9819 28.5626 
406 1 -5.82625 -4.03426 31.3767 
847 1 0.46708 -0.424051 30.0198 
851 4 -0.428978 -0.01258 30.9959 
402 3 -4.6153 -4.5974 30.6912 
421 2 -2.4205 -5.15409 29.0834 
398 1 -3.39438 -5.20214 28.5894 
399 1 -4.59442 -4.95028 29.3359 
872 2 -1.06787 -0.742404 31.415 
848 1 0.356715 -1.74045 29.4637 
850 1 -0.936495 -2.48006 29.7032 
855 2 -1.80496 -1.78519 29.5771 
856 2 -1.10576 -3.00477 30.7181 
857 2 -1.15961 -3.25553 29.0257 
171 2 62.5371 65.2146 29.8954 
18 1 -1.10419 -5.7916 32.2769 
39 2 -2.05986 -5.23949 32.1777 
26 2 -0.661797 -5.66935 33.2928 
150 1 62.701 65.9297 30.7332 
172 2 62.122 65.5131 31.5506 
873 2 0.254473 -4.25079 28.6477 
85 2 65.3024 61.3499 26.3362 
64 1 66.1988 60.9348 26.9099 
852 4 1.17931 -3.84177 28.379 
871 2 -0.166786 1.03463 31.1771 
920 2 1.82378 58.8949 95.7038 
63 1 66.3359 59.4138 26.6597 
915 1 2.80793 59.1092 95.392 
922 2 3.27968 60.0771 97.3925 
913 4 5.06161 58.4465 93.6016 
846 1 1.69898 0.250741 29.642 
916 1 3.25134 60.2849 96.3061 
924 2 4.3066 60.536 96.07 
849 1 1.3573 -2.4482 28.7879 
84 2 67.3938 59.2307 26.8674 
845 1 2.74516 -0.330099 28.9538 
844 1 2.56875 -1.69625 28.6016 
865 2 3.71386 0.205781 28.66 
867 2 4.43939 -2.7722 29.0397 
864 1 4.71234 -1.59073 27.3036 
866 2 3.53089 -3.34153 27.5053 
870 2 5.40524 -2.23315 26.703 
863 1 3.80012 -2.47847 28.1579 
108 3 4.67641 -4.58527 26.1258 
103 1 5.49635 -5.83565 26.0692 
934 2 3.871 60.0539 90.7012 
124 2 6.60826 -5.64211 26.3302 
933 2 4.39841 59.2732 93.6369 
86 2 66.9932 61.4259 26.4546 
921 2 2.64974 59.4197 94.4191 
923 2 2.64733 61.1508 96.0771 
868 2 5.45089 -1.09174 27.9413 
869 2 4.40286 -0.900814 26.5578 
552 2 -15.0856 59.7723 -37.3162 
163 2 57.9249 67.2748 27.771 
140 1 58.4997 66.4724 27.1925 
141 1 59.8517 66.2971 27.4951 
170 2 61.317 67.7361 30.8555 
169 2 62.234 66.4827 28.2091 
148 1 61.6865 67.3116 28.7718 
156 2 62.3648 67.9438 28.1763 
144 3 60.2804 67.1954 28.5338 
149 1 62.1656 67.3294 30.2548 
152 3 63.5557 67.1223 30.7023 
860 2 0.739978 3.10172 28.8055 
859 2 1.22256 2.01359 30.9735 
854 1 1.73244 2.73731 28.8848 
862 2 2.35651 3.6106 28.8712 
853 1 1.80717 1.68559 30.0411 
858 2 2.8832 1.86501 30.3641 
861 2 1.79108 2.19113 27.9068 
712 2 -5.74475 -24.6725 27.2831 
715 2 -3.49981 -24.2267 28.705 
711 2 -4.33292 -24.3425 26.2954 
708 1 -4.98592 -23.8611 27.0726 
713 2 -5.04398 -23.4575 29.2448 
709 1 -4.25781 -23.4871 28.4123 
691 1 -7.44599 -21.1634 26.0497 
42 2 -7.62273 -17.387 25.6926 
698 1 -8.92659 -20.9457 26.1387 
703 2 -9.11926 -19.8657 26.2068 
284 2 -11.7678 -15.3773 31.057 
297 2 -13.3696 -15.3537 31.8112 
336 2 54.9934 49.3566 -38.1279 
34 2 -7.60049 -15.7224 28.537 
597 2 -7.92659 -18.0625 30.3258 
581 3 -8.95075 -18.6765 28.4573 
585 2 -9.75589 -19.8852 30.0796 
577 1 -8.9764 -19.8081 29.3284 
710 2 -7.47534 -22.9979 27.2459 
704 2 -9.39124 -21.3842 27.014 
598 2 -8.51275 -20.7908 29.1522 
576 1 -7.90311 -18.6533 29.4627 
289 2 -8.20617 -17.0517 32.5525 
264 1 -7.62087 -16.147 32.5031 
43 2 -6.06736 -17.873 25.9849 
694 1 -4.60896 -21.7766 25.7456 
285 2 -3.48655 -15.0893 25.6583 
719 2 -2.86676 -22.7371 26.0921 
690 1 -6.85504 -22.2661 26.6764 
293 2 -4.232 -15.9415 27.5744 
15 3 -6.61207 -15.5039 26.2441 
584 2 -6.53508 -19.7391 28.2195 
575 1 -6.53917 -18.9202 28.9702 
596 2 -6.43328 -18.1321 28.1976 
277 1 -2.72796 -15.8417 25.8398 
292 2 -0.299382 -15.3187 29.1386 
269 1 -1.3891 -15.449 29.2991 
291 2 -1.14206 -15.1445 31.4433 
273 3 -1.63355 -15.6486 26.8571 
270 1 -2.15462 -15.674 28.1524 
298 2 -3.41962 -16.7101 26.0585 
689 1 -5.50972 -22.5643 26.5049 
268 1 -1.8649 -15.3215 30.5958 
714 2 -3.76423 -22.4807 28.3942 
567 3 -5.53352 -18.8752 30.0736 
271 1 -3.54002 -15.8057 28.4318 
263 1 -6.25076 -16.2745 32.2883 
262 1 -5.40635 -15.1586 32.3455 
590 2 -4.45846 -18.7497 27.5551 
560 1 -4.21442 -19.1219 29.696 
565 1 -3.78786 -19.1194 28.3282 
267 1 -3.26125 -15.4466 30.8531 
587 2 -3.39598 -19.2868 31.6882 
561 1 -3.20907 -19.4154 30.6222 
593 2 1.10682 -16.399 27.0928 
265 1 -3.87291 -15.2965 32.2687 
592 2 -0.679771 -17.964 27.7333 
591 2 0.0711305 -21.4076 29.1416 
569 1 0.350098 -18.2938 27.7086 
583 2 -0.594045 -21.1579 27.557 
589 2 -2.27848 -19.5784 26.8661 
566 1 -0.303033 -20.6297 28.4543 
568 1 0.776681 -19.6069 28.0802 
588 2 -1.2394 -20.1715 31.0392 
562 1 -1.9546 -19.8561 30.2652 
563 1 -1.65165 -20.0302 28.9174 
294 2 -5.10499 -15.8176 29.8011 
272 1 -4.04493 -15.6489 29.7311 
564 1 -2.55421 -19.5599 27.9285 
288 2 -5.80065 -17.2534 32.0166 
282 2 -3.55332 -16.1903 32.9053 
793 2 2.12912 -15.2964 25.6625 
586 2 5.66544 -17.7407 27.4079 
570 1 1.37359 -17.4203 27.3403 
573 1 2.1383 -19.9383 28.0444 
595 2 2.50073 -20.9442 28.2567 
571 1 2.75952 -17.6645 27.2826 
572 1 3.06192 -19.007 27.5874 
594 2 4.12541 -19.2791 27.5217 
574 3 3.74625 -16.7784 26.8162 
599 2 5.00339 -16.7213 28.599 
582 3 7.25946 -15.8784 26.77 
579 1 5.88422 -15.6849 26.9724 
578 1 5.05485 -16.8219 27.5203 
533 1 -14.6848 53.2303 -31.2373 
926 1 3.55731 55.1798 99.0333 
932 2 4.66001 55.0231 99.0426 
931 2 3.33814 56.1847 99.4782 
930 2 3.2388 54.5903 99.8507 
542 2 -16.3728 51.7908 -30.9271 
538 3 -15.2895 53.4335 -29.9317 
534 1 -16.1739 52.8192 -30.86 
