ITEM: TIMESTEP
760000
ITEM: NUMBER OF ATOMS
936
ITEM: BOX BOUNDS pp pp pp
-1.5000000000000000e+01 5.0000000000000000e+01
-1.5000000000000000e+01 5.0000000000000000e+01
-1.5000000000000000e+01 5.0000000000000000e+01
ITEM: ATOMS id type xu yu zu 
828 2 -2.70656 -7.61812 9.22789 
227 1 53.0222 53.6414 15.6197 
230 3 53.4802 53.6078 14.2856 
228 1 53.1775 52.663 16.5916 
234 1 54.4167 52.5312 13.8553 
242 2 54.1543 51.5294 14.1307 
250 2 53.823 51.7806 16.3923 
255 2 55.4184 52.3647 14.3342 
226 1 52.2751 54.7916 16.0285 
249 2 52.1739 55.6464 15.3749 
256 2 54.2207 53.4298 11.917 
235 1 54.6061 52.5018 12.3512 
238 3 54.9608 51.2999 11.6503 
258 2 56.4924 52.7918 11.0951 
236 1 56.1016 52.1596 11.8459 
257 2 56.9637 52.1975 12.6362 
730 1 57.5171 53.472 16.9859 
452 3 57.1122 57.2114 16.3621 
736 2 58.0377 52.5993 17.4425 
738 2 57.4017 53.1213 15.9223 
671 2 -6.94983 -14.7234 12.7734 
734 2 55.81 54.9043 17.072 
748 2 58.0893 57.3842 16.5986 
225 1 51.7474 54.9052 17.2731 
735 2 55.3293 53.261 17.2171 
468 2 55.0127 57.6769 17.2437 
447 1 56.0833 57.901 17.2916 
737 2 58.2362 54.3116 16.9106 
684 2 -5.48157 -14.1991 12.0136 
663 1 -6.12201 -14.0615 12.8501 
825 2 -6.45129 -10.0388 13.2327 
362 1 61.9005 53.8542 15.4611 
361 1 61.8726 55.2583 16.0876 
383 2 62.9134 53.5416 15.2144 
836 2 -1.77078 -12.2799 13.004 
839 2 0.307282 -9.97381 12.7149 
382 2 62.2162 56.033 15.3572 
832 1 -1.40576 -11.4073 12.5129 
835 2 -1.15446 -11.7863 11.5405 
821 4 -3.8896 -11.3986 14.191 
842 2 -4.8403 -11.0913 14.557 
818 1 -3.63022 -10.4016 13.1623 
813 1 -2.45665 -10.3461 12.385 
833 1 -0.123931 -10.874 13.2266 
838 2 -0.355704 -10.5339 14.2069 
837 2 0.713017 -11.5996 13.2528 
834 2 -1.21348 -9.45255 10.8184 
814 1 -2.15701 -9.39861 11.3961 
817 1 -4.45944 -9.24552 12.969 
676 2 -1.38832 -13.6796 15.0339 
370 2 61.4681 53.1852 16.3188 
650 1 0.260373 -14.9286 14.8228 
74 2 65.9747 57.7677 14.6914 
670 2 -3.58881 -13.15 13.2259 
667 3 -6.14637 -12.8639 13.6425 
651 1 -1.07438 -14.6713 14.671 
682 2 -3.38923 -13.3149 14.8235 
661 1 -3.83014 -13.8536 14.027 
366 3 60.5837 55.496 16.7425 
662 1 -5.31432 -13.9254 14.1686 
683 2 -5.63239 -14.7659 14.8589 
675 2 0.895337 -14.2319 15.2282 
843 2 -4.50505 -8.49123 16.836 
819 1 -5.8693 -9.24084 13.5907 
824 2 -5.84256 -9.28346 14.7041 
826 2 -6.32425 -8.32007 13.3273 
815 1 -2.97634 -8.28736 11.3032 
831 2 -0.272817 -7.40428 10.4586 
816 1 -4.00071 -8.09973 12.2585 
369 2 63.9116 55.6954 16.7109 
360 1 63.0681 55.0682 17.0939 
840 2 -5.06882 -7.08083 13.5688 
822 1 -2.58515 -7.20076 10.2598 
510 2 3.91281 -9.23463 14.1176 
109 3 2.47143 -11.0412 17.0285 
495 3 4.46871 -12.2036 13.873 
490 1 4.72573 -11.1184 14.7294 
511 2 4.45215 -11.0325 15.8066 
491 1 5.77563 -12.2706 14.4742 
499 2 5.99858 -12.8502 15.3702 
512 2 6.70736 -11.783 14.1535 
481 3 5.89087 -9.02757 15.1541 
489 1 4.92377 -9.6982 14.2164 
498 2 5.097 -9.75817 13.1553 
681 2 3.32142 -14.4851 15.7633 
501 2 7.32949 -7.70957 16.8735 
474 1 5.87553 -7.62117 15.2635 
73 2 68.0209 57.8456 15.9288 
475 1 6.69734 -7.04664 16.2473 
504 2 4.45307 -7.19464 13.7628 
893 2 52.0619 60.9012 17.2133 
467 2 56.0989 59.7759 16.3849 
460 2 56.2624 64.3131 17.4118 
461 2 56.6151 61.9459 17.0749 
446 1 56.1753 59.4191 17.4191 
49 1 65.9827 58.2022 15.7054 
829 2 -0.979148 -6.10588 11.4912 
827 2 -3.29197 -6.39288 10.3207 
823 1 -1.0712 -6.63244 10.5239 
69 2 62.4921 58.2425 13.4361 
820 4 -4.5043 -6.81718 12.7291 
841 2 -5.3975 -6.1247 16.2115 
830 2 -0.83422 -5.89375 9.76878 
65 3 59.9215 58.5313 15.3132 
82 2 61.9521 59.8287 13.0311 
61 1 61.5753 58.9107 13.5399 
51 3 63.6111 58.5626 15.3157 
60 1 61.168 59.2908 14.9641 
81 2 61.2436 60.3782 14.9393 
59 1 62.3856 59.0471 15.9599 
68 2 62.4995 59.9462 16.6076 
44 1 64.7333 58.6884 16.1644 
80 2 62.0038 58.5386 16.84 
168 2 58.714 65.9787 17.2563 
155 2 60.134 65.5673 16.4152 
147 1 59.3018 65.1209 16.9598 
151 3 58.8847 63.7398 16.9552 
45 1 64.833 59.2743 17.4594 
479 1 5.04028 -6.7524 14.5443 
503 2 4.17396 -4.74833 14.3286 
478 1 4.93471 -5.39447 14.8089 
497 2 5.31777 -2.9807 15.0887 
477 1 5.81596 -4.90363 15.8341 
505 2 6.87225 -3.03348 16.0192 
480 1 5.81821 -3.37916 15.9676 
476 1 6.72132 -5.7023 16.5456 
502 2 7.37084 -5.2437 17.2956 
482 1 5.02648 -2.88098 17.1745 
506 2 3.21467 -3.62493 16.2788 
483 1 3.64827 -3.15239 17.1433 
48 1 67.1328 58.251 16.4458 
367 3 57.2808 49.6714 16.0632 
364 1 56.5347 48.5806 16.6149 
365 1 56.3744 49.139 15.0779 
385 2 56.974 47.5502 16.6412 
387 2 56.6545 48.3447 14.354 
386 2 55.369 49.4654 14.8271 
384 2 54.5794 48.063 17.0824 
371 2 54.8835 49.6489 17.2999 
646 1 -2.03088 -15.5751 14.1518 
653 3 -3.36013 -15.2936 13.9062 
649 1 0.649129 -16.2114 14.4432 
673 2 -2.32935 -17.6227 13.5385 
647 1 -1.60509 -16.9068 13.8698 
625 3 -1.49581 -17.3325 16.9428 
648 1 -0.302197 -17.2076 14.0223 
674 2 0.123807 -18.1999 13.6905 
669 2 2.71514 -15.7032 13.9331 
659 1 3.15719 -15.3123 16.4455 
652 1 2.14724 -16.5144 14.5461 
677 2 2.30965 -17.4569 14.0183 
678 2 1.99207 -18.5631 16.4444 
654 1 2.56557 -16.5361 16.0054 
655 1 2.32759 -17.633 16.879 
248 2 51.2362 55.8212 17.5843 
229 1 52.6211 52.71 17.8488 
224 1 51.8161 53.8028 18.1659 
251 2 52.7667 51.9266 18.5557 
729 1 56.094 53.9652 17.5425 
239 2 50.1141 54.2397 19.441 
247 2 50.7512 52.7382 19.7279 
222 1 51.0832 53.7605 19.535 
244 2 50.4467 53.7928 22.2323 
219 1 51.9063 54.3375 20.6738 
218 1 51.4235 54.2244 22.0063 
741 2 55.3173 52.1849 19.2584 
216 1 53.4653 55.3174 22.8821 
223 3 54.1206 55.6653 24.0945 
231 1 55.4876 56.1479 23.9509 
252 2 55.9183 56.0902 22.9312 
233 1 56.5496 53.8901 24.3666 
241 2 55.5822 53.4851 24.214 
232 1 56.4395 55.3506 24.8428 
221 1 53.9277 55.3563 21.5455 
240 2 55.6849 57.2159 24.2147 
246 2 54.9419 55.7673 21.2846 
217 1 52.1817 54.7394 23.0164 
220 1 53.1755 54.9382 20.4897 
243 2 51.804 54.6835 23.9998 
739 1 55.7534 51.6644 22.0207 
742 2 56.4749 51.4422 22.7581 
721 1 55.9022 52.9326 19.7842 
720 1 56.248 52.8593 21.1675 
743 2 55.8175 50.7113 21.4275 
725 1 56.9918 53.852 21.7985 
722 1 56.2957 54.0747 19.073 
245 2 53.5951 55.0003 19.4717 
456 2 55.516 57.1317 19.2439 
740 1 54.3182 52.0654 22.6047 
745 2 54.2729 52.9649 23.1712 
448 1 56.3979 57.4047 18.676 
723 1 57.0552 55.1294 19.649 
237 3 57.7643 56.0231 24.9687 
728 4 57.4594 53.6935 23.1761 
744 2 53.6353 52.1325 21.7908 
254 2 56.924 53.3073 25.2532 
746 2 53.9141 51.3311 23.3143 
724 1 57.322 54.9916 21.0143 
330 2 51.9162 52.7939 -39.6757 
310 1 50.7207 50.3689 -39.9718 
312 1 50.2185 50.5344 -42.3617 
905 2 51.0783 57.9852 24.4418 
883 4 50.352 57.9463 23.7505 
880 1 50.701 58.0394 22.3844 
379 2 56.8759 50.7762 18.1253 
747 2 57.6012 56.0311 17.9478 
727 4 57.4564 56.3476 18.9254 
732 2 57.4098 57.0688 21.7679 
357 1 57.2005 50.3243 19.0786 
726 1 58.0849 56.2486 21.554 
898 2 52.8575 57.9636 23.8269 
27 2 -8.78146 -14.1373 25.4119 
129 2 0.807596 -11.5053 18.4608 
750 2 58.316 55.3264 25.3263 
372 2 63.3183 51.1894 18.2016 
352 3 63.2854 53.6727 17.5125 
749 2 58.2284 54.4347 23.2052 
733 2 58.6578 56.6519 20.7381 
731 2 58.7403 56.1619 22.4411 
381 2 62.8843 55.7321 17.9174 
346 1 62.5589 51.7716 18.7487 
345 1 62.4584 53.138 18.5185 
347 1 61.7564 51.0955 19.6433 
350 1 61.4334 53.8124 19.2243 
375 2 61.2803 54.883 19.0043 
348 1 60.8179 51.8065 20.441 
349 1 60.7018 53.2058 20.2231 
603 1 -2.43574 -8.29981 20.1007 
608 1 -3.00073 -8.84902 21.232 
374 2 59.9799 53.7572 20.8308 
633 2 -4.08105 -8.62574 21.4079 
607 1 -2.29691 -9.73867 21.9806 
632 2 -2.75528 -10.2707 22.8166 
610 3 -3.23512 -7.54014 19.2095 
639 2 -5.50705 -7.52616 19.6019 
611 1 -0.384063 -12.4064 21.9914 
606 1 -0.905348 -9.99047 21.7477 
616 1 0.516608 -12.8223 20.9713 
380 2 58.6285 51.8823 19.1859 
604 1 -1.05483 -8.52059 19.8852 
635 2 -2.00066 -13.0458 23.3197 
215 2 -5.80491 -12.9063 24.7144 
626 2 -0.792502 -10.9993 23.6677 
630 2 -0.645865 -7.91908 19.0329 
605 1 -0.287972 -9.35715 20.6488 
609 1 -0.302303 -11.0336 22.6714 
411 2 -2.62713 -8.52038 24.7401 
612 1 -1.30677 -13.3557 22.5218 
368 2 59.7113 52.1109 22.2246 
213 2 -3.23967 -12.1262 24.782 
351 1 59.9417 51.2775 21.5867 
358 1 58.2363 50.9848 19.6702 
634 2 0.803621 -10.8584 22.7421 
299 2 -3.16617 -14.1765 25.3906 
376 2 60.4515 50.5509 22.2291 
353 1 58.7531 50.5877 20.9428 
195 3 -5.02005 -10.7859 24.9089 
631 2 0.800849 -9.44943 20.4486 
615 1 0.383931 -14.1488 20.4613 
637 2 1.08613 -14.4599 19.6875 
808 2 0.399991 -9.01311 24.2772 
193 1 -5.52394 -12.0687 25.3265 
416 2 -0.801114 -7.41231 23.2728 
419 2 -4.17121 -8.25534 23.9807 
394 1 -3.33997 -7.7306 24.4784 
613 1 -1.37151 -14.6172 22.0289 
192 1 -4.0179 -11.6224 25.4407 
795 2 -0.30642 -14.3583 25.1468 
618 1 -4.55236 -7.01558 19.6791 
788 1 0.734341 -14.6057 25.3584 
128 2 1.45564 -9.83565 18.7018 
806 2 2.1292 -9.08011 23.966 
638 2 1.33062 -12.2067 20.634 
802 1 1.40527 -8.82288 24.7327 
807 2 1.33071 -7.74574 24.9727 
107 1 1.55885 -10.789 18.1146 
113 2 4.99713 -10.7308 18.1411 
786 1 1.77038 -13.462 25.236 
126 2 3.98593 -9.46123 18.1345 
106 1 3.02346 -11.3405 18.3094 
121 2 6.38619 -9.73286 18.7175 
105 1 4.11226 -10.4187 18.7266 
99 1 6.36726 -9.35711 19.7561 
127 2 2.97742 -12.2823 18.9072 
101 3 4.1334 -10.3483 20.2252 
98 1 5.32997 -9.65892 20.6359 
97 1 5.43279 -9.22623 21.9616 
120 2 4.56907 -9.3909 22.5919 
796 2 4.90351 -11.7473 22.5466 
784 1 3.66877 -12.51 24.183 
96 1 6.4774 -8.51684 22.4366 
119 2 6.58389 -8.11378 23.4188 
76 2 66.7832 57.4914 19.9774 
77 2 66.5054 57.4849 22.339 
100 1 7.46876 -8.53707 20.1368 
95 1 7.53905 -8.16678 21.5029 
54 1 67.4034 58.0255 21.9299 
680 2 4.01417 -14.3497 18.1091 
53 1 67.5622 57.9908 20.5711 
791 1 4.95031 -12.5289 23.3022 
803 2 3.857 -10.4197 24.4618 
783 1 3.24774 -11.3075 24.74 
110 2 9.14283 -8.2617 22.8618 
797 2 5.02232 -13.4185 22.7752 
785 1 2.90319 -13.6659 24.4339 
799 2 7.21689 -12.4503 23.5275 
792 1 6.28618 -12.3988 24.1434 
800 2 6.34139 -13.104 24.9587 
798 2 6.33531 -11.3893 24.5962 
782 1 2.08247 -11.1231 25.5094 
122 2 8.27138 -8.32615 19.3642 
93 1 8.6571 -7.50025 22.2638 
688 2 3.33027 -14.8473 21.965 
194 3 8.83358 -9.2891 25.6061 
75 2 69.1207 57.8501 18.0478 
209 2 6.22572 -9.00851 25.5818 
118 2 9.47888 -7.27835 21.6288 
879 1 49.8014 57.811 21.3076 
553 2 -15.0576 55.6275 -39.8375 
882 4 48.9103 58.1115 18.9205 
887 2 48.1728 56.3771 20.9011 
538 3 -17.469 54.8798 -40.9371 
888 2 47.6347 57.9152 21.6686 
533 1 -17.1229 55.4336 -39.65 
886 2 48.4769 56.7036 22.6605 
881 1 48.4222 57.1411 21.6532 
335 2 49.6284 50.9168 -43.1552 
311 1 49.8691 50.7582 -41.0288 
334 2 48.9607 51.3388 -40.8355 
904 2 49.3317 57.8585 23.8081 
534 1 -18.2558 54.4024 -39.7625 
542 2 -19.2593 54.7765 -39.4631 
889 2 51.1692 58.3422 17.5209 
885 1 51.4645 60.4909 18.0763 
892 2 50.4039 60.7422 17.9652 
891 2 51.8812 61.0619 18.9176 
462 2 54.1987 65.9098 18.3874 
884 1 51.7359 58.953 18.2386 
877 1 51.3105 58.5569 19.6461 
435 1 55.7783 63.5967 18.0705 
436 1 55.9678 62.2645 17.9122 
890 2 52.7979 58.5594 18.0687 
455 2 57.2506 59.7287 17.5134 
557 2 -8.98153 59.5512 -41.193 
876 1 52.3265 58.6273 20.5957 
897 2 54.1829 58.3539 22.6422 
896 2 53.3852 58.8308 20.3092 
875 1 52.0598 58.2896 21.9316 
559 2 -9.42667 60.0011 -43.6473 
894 1 53.1404 58.5575 22.9472 
900 2 51.9642 60.3095 23.3524 
434 1 54.9458 64.0413 19.125 
431 1 55.2458 61.309 18.6929 
433 1 54.2411 63.1267 19.9599 
459 2 53.5552 63.4975 20.7331 
438 3 55.2681 59.9199 18.5174 
458 2 53.7589 61.1086 20.2558 
432 1 54.3747 61.8085 19.6743 
159 2 56.1269 64.5075 23.4039 
134 1 57.1978 64.4177 23.3289 
895 1 53.0497 60.053 23.3555 
901 2 53.5217 60.7836 22.6181 
899 2 53.3554 60.298 24.3497 
531 3 -8.6994 61.5302 -39.8724 
558 2 -8.25185 61.3304 -43.5417 
537 1 -8.47553 60.3509 -43.251 
535 1 -7.62867 61.1167 -40.8092 
536 1 -8.19212 60.0391 -41.7346 
133 1 58.0703 64.6658 24.4348 
160 2 57.1137 63.8913 21.2851 
135 1 57.7986 64.0158 22.1258 
469 2 56.6693 58.3039 19.2812 
556 2 -7.18755 61.8727 -41.501 
166 2 57.9278 63.9553 19.2814 
539 3 -7.44905 59.4567 -42.7844 
437 1 54.6412 65.5159 19.3219 
454 2 53.8868 65.6054 20.1003 
550 2 -7.82411 58.8952 -39.4667 
627 2 -4.71245 -6.82029 20.7106 
154 2 58.8939 65.2304 19.6231 
71 2 63.9365 59.7199 17.9786 
624 3 -5.89471 -5.60447 18.2404 
619 1 -4.69676 -5.71525 19.0087 
641 2 -6.35342 -4.89272 20.392 
132 1 59.4493 64.4911 24.2761 
620 1 -5.91982 -4.74074 19.4017 
130 1 59.1334 63.7632 21.8757 
145 1 59.022 64.1098 19.4881 
137 3 59.6513 63.3854 20.5789 
167 2 60.7651 63.8334 18.199 
146 1 59.6887 64.0475 18.0901 
640 2 -3.74307 -5.22594 18.7434 
628 2 -5.67954 -3.65283 19.3564 
424 2 -3.35161 -2.67203 20.1049 
403 1 -2.3324 -2.53417 20.4248 
412 2 -2.59157 -1.79532 21.1797 
418 2 -4.02354 -3.80864 22.0385 
395 3 -1.4914 -3.69016 20.7826 
417 2 -4.69135 -5.49996 23.4863 
393 1 -3.28516 -4.64425 22.208 
392 1 -3.68703 -5.62826 23.0971 
388 1 -1.97575 -4.63489 21.743 
391 1 -2.84539 -6.68273 23.5598 
389 1 -1.10697 -5.71769 22.1166 
415 2 -0.150262 -5.80399 21.66 
131 1 59.9493 63.9928 23.0352 
157 2 60.9835 63.9037 22.8991 
404 1 -1.59232 -1.84565 19.2853 
46 1 65.9707 59.2879 18.2237 
409 3 -1.62539 -0.44211 19.1997 
390 1 -1.52735 -6.64299 23.0138 
405 1 -0.370011 -0.947338 19.68 
72 2 65.9751 59.673 19.2323 
158 2 60.1211 64.7559 25.0564 
425 2 -1.39196 -2.60165 18.4699 
413 2 0.576751 -0.99702 19.0718 
426 2 -0.100439 -1.19025 20.7093 
543 2 -6.62242 60.855 -40.4326 
515 2 0.822415 -4.01676 22.9652 
516 2 0.699447 -2.79251 21.7368 
494 1 1.04805 -2.94175 22.7329 
496 3 1.23518 -1.83838 23.6195 
870 2 0.0389201 -3.86676 25.0184 
864 1 0.787433 -4.46038 25.5923 
869 2 1.41402 -5.01713 24.917 
58 3 68.0366 58.6374 24.1499 
55 1 68.2603 58.7561 22.765 
62 1 69.1469 59.1693 25.0187 
509 2 6.63196 -1.9127 18.2946 
487 1 5.57661 -2.25112 18.3152 
47 1 67.2038 58.7393 17.787 
89 1 9.20128 -6.03755 24.1567 
79 2 70.1288 60.1827 20.286 
90 1 8.28982 -6.23467 23.0545 
78 2 70.0326 59.9868 22.6626 
56 1 69.2708 59.448 22.1048 
92 1 7.16944 -4.22788 23.6247 
91 1 7.39151 -5.26441 22.6681 
57 1 69.4192 59.4868 20.7041 
67 2 69.1688 59.5516 17.9632 
50 1 68.6165 58.7138 18.3794 
52 1 68.5906 58.7039 19.8992 
116 2 6.85335 -5.35537 21.7035 
486 1 4.7436 -1.9276 19.3734 
485 1 3.35976 -2.16105 19.3617 
492 1 3.12418 -1.61212 21.7889 
117 2 6.36983 -3.5181 23.4183 
87 1 8.02299 -3.90051 24.6293 
88 1 9.03342 -4.858 24.8932 
508 2 5.22561 -1.48516 20.2964 
123 2 6.74192 -1.21586 24.3297 
484 1 2.84005 -2.81487 18.2111 
488 3 2.53235 -2.06605 20.5068 
507 2 1.79907 -3.09327 18.2671 
102 1 6.77686 -1.78744 25.2405 
111 2 5.73986 -2.19462 25.2412 
513 2 4.22282 -1.6622 21.9149 
493 1 2.4638 -2.30105 23.0104 
514 2 3.19132 -2.82823 23.6092 
500 2 3.17066 -0.535392 22.0139 
83 2 70.1184 58.9146 24.7583 
70 2 69.4342 60.2205 25.0475 
94 3 7.88679 -2.65641 25.366 
115 2 9.97621 -6.70834 24.4522 
902 2 49.1825 58.2575 17.9438 
878 1 49.9538 58.1729 19.935 
903 2 47.8984 58.4129 19.2174 
466 2 56.8188 66.5093 17.6723 
463 2 55.2982 66.5951 21.7496 
440 1 56.0055 66.8739 21.0013 
439 1 55.8793 66.3581 19.7011 
444 1 56.808 66.8059 18.7366 
441 1 57.0315 67.7354 21.3343 
464 2 57.0808 68.0261 22.4018 
443 1 57.7718 67.707 19.1492 
442 1 58.0093 68.1515 20.4767 
465 2 58.4296 68.0225 18.3336 
471 2 61.098 68.4882 22.6516 
457 2 58.5525 69.0861 22.9765 
445 3 59.114 69.0058 20.7624 
449 1 59.1861 69.4837 22.1497 
470 2 58.8063 70.4737 22.4183 
450 1 60.5934 69.4834 22.7492 
473 2 62.3672 70.5499 21.87 
451 1 61.4232 70.7958 22.3748 
472 2 60.8732 71.4811 21.6713 
453 3 61.0249 70.4268 23.7202 
709 1 -7.32205 -25.0641 25.6054 
715 2 -7.11971 -24.9416 24.5374 
780 2 -0.400282 -24.1809 23.2094 
759 4 0.233305 -23.3506 23.2368 
773 2 -2.06876 -24.3652 22.1724 
771 1 -3.06339 -23.8559 24.0818 
776 2 -2.27493 -23.4956 24.7634 
770 1 -2.6305 -23.5334 22.6204 
774 2 -3.54415 -23.5303 22.0728 
777 2 -3.14913 -24.9646 24.233 
775 2 -3.96165 -23.3146 24.4323 
781 2 1.26016 -23.1342 23.4128 
315 1 51.9081 49.6483 -40.3553 
363 1 55.352 48.6991 17.5399 
313 1 51.2589 49.7197 -42.7808 
41 2 -8.01607 -15.9981 23.9174 
23 3 -10.2593 -15.9571 24.3308 
716 2 -10.2084 -16.575 23.5526 
314 1 52.0411 49.2975 -41.6578 
316 3 51.5356 49.4088 -44.1133 
344 2 53.6252 45.2822 -44.5519 
322 1 53.9272 46.2713 -44.0954 
342 2 51.6815 46.6582 -43.8066 
343 2 54.6629 46.5999 -44.8411 
324 3 53.6728 46.8484 -42.7907 
321 1 52.6695 47.1373 -43.757 
328 2 53.7049 48.8544 -44.2027 
341 2 52.8362 48.4085 -45.5422 
359 3 55.6205 48.4525 19.033 
320 1 52.6858 48.5131 -44.4587 
356 1 56.6343 49.1721 19.6834 
693 1 -7.50841 -20.6995 25.1579 
378 2 56.7665 47.8662 21.4264 
696 4 -8.68587 -18.649 24.1641 
717 2 -9.67217 -18.5974 23.822 
336 2 52.9297 48.6745 -41.8896 
692 1 -8.61594 -20.0495 24.5991 
704 2 -11.1458 -20.032 23.2514 
691 1 -9.78144 -20.8886 24.7317 
703 2 -11.8127 -21.2372 24.2231 
698 1 -11.168 -20.4078 24.2673 
20 1 -8.79724 -16.0616 24.6787 
21 1 -8.503 -17.5504 25.1607 
355 1 57.1579 48.7963 20.945 
337 2 52.5809 49.2064 -39.6398 
690 1 -9.71839 -22.1925 25.2328 
43 2 -7.50209 -17.6819 25.5259 
710 2 -10.6527 -22.7162 25.2615 
707 2 -11.0404 -18.3646 25.1723 
699 1 -11.732 -19.2157 25.1078 
706 2 -12.6051 -18.7523 24.5906 
644 2 -2.79034 -15.9587 18.125 
623 1 -2.59424 -16.9619 17.7384 
645 2 -3.60212 -17.5049 17.8748 
373 2 61.866 49.9923 19.8174 
642 2 -0.00390468 -15.9467 18.5677 
300 2 -5.10016 -15.288 24.7192 
354 1 58.1658 49.4589 21.5706 
695 1 -6.17098 -19.9497 25.0421 
700 2 -6.1639 -19.172 24.2556 
756 1 -0.483067 -22.1951 22.8347 
751 1 -1.86153 -22.2822 22.399 
629 2 0.580118 -17.2358 19.265 
279 1 -4.30191 -15.9907 24.8684 
377 2 58.531 49.0276 22.5238 
752 1 -2.47515 -21.2061 21.7494 
772 2 -3.55552 -21.3135 21.4478 
622 1 -1.23443 -17.6647 18.3116 
701 2 -5.26504 -20.622 24.8864 
621 1 -0.375375 -16.7667 19.2032 
614 1 -0.610047 -15.0549 20.9671 
617 3 -1.0228 -16.3412 20.4866 
755 1 0.0914901 -20.9205 22.6568 
754 1 -0.570155 -19.7724 22.1267 
753 1 -1.89092 -19.9323 21.5532 
778 2 -0.552472 -17.8148 21.7416 
760 1 -2.78414 -18.7897 21.1679 
765 2 -3.35752 -19.0136 20.3182 
766 2 -2.32664 -17.8093 21.0202 
761 1 -3.74554 -18.5683 22.3671 
768 2 -4.30581 -19.4913 22.6081 
769 2 -4.50337 -17.8162 22.1579 
758 4 0.0899453 -18.5402 22.1024 
636 2 -2.08776 -15.3256 22.438 
767 2 -3.19584 -18.3353 23.3105 
281 3 -3.04322 -16.0544 24.0917 
643 2 -1.38454 -18.6667 18.8462 
592 2 -1.68343 -19.2151 24.6443 
570 1 0.0948396 -18.2809 25.3872 
593 2 -0.0344522 -17.5069 24.5748 
278 1 -2.98464 -15.2822 25.2819 
569 1 -0.886638 -19.2691 25.3985 
583 2 -2.42356 -21.4048 25.3311 
779 2 1.03172 -18.4718 22.5104 
794 2 0.859002 -15.4471 24.5561 
658 1 3.52386 -15.296 17.7817 
757 1 1.57928 -20.8097 23.0007 
656 1 2.66884 -17.5325 18.1909 
762 2 2.06242 -21.6705 23.3376 
764 2 2.23334 -20.3526 22.2027 
763 2 1.76319 -20.0899 23.8231 
687 2 1.833 -15.5278 22.5326 
679 2 2.5611 -18.3916 18.8562 
657 1 3.31717 -16.3435 18.6496 
685 2 2.78414 -18.1121 20.7792 
672 2 4.35134 -18.0247 20.8168 
668 3 2.65575 -17.9696 23.2999 
810 2 2.63405 -17.5597 24.192 
686 2 4.48813 -16.8083 22.8095 
666 1 2.89142 -15.5433 22.7227 
665 1 3.44338 -16.9708 22.4947 
664 1 3.54567 -17.3172 20.96 
660 3 3.54726 -16.1625 20.0871 
789 4 3.29535 -15.0291 24.0973 
809 2 2.77941 -15.7341 24.664 
601 2 5.47266 -17.2231 25.043 
602 2 4.52111 -18.5899 25.5813 
547 2 -13.3887 55.1974 -38.9059 
522 1 -13.3745 55.814 -37.9063 
546 2 -11.2551 56.1787 -37.9727 
521 1 -12.1527 56.3327 -37.4601 
253 2 55.9955 55.3789 25.8437 
329 2 53.9169 53.9782 -38.856 
304 1 52.3412 52.5462 -38.7038 
303 1 53.4131 53.215 -38.2126 
305 1 51.7404 51.5491 -37.8985 
338 2 55.3062 53.6701 -34.4353 
309 3 55.1343 53.6692 -36.6639 
302 1 53.9694 52.9214 -36.9338 
317 1 55.8049 53.4163 -35.3898 
332 2 53.6523 51.8341 -35.1049 
307 1 53.3026 52.0046 -36.1145 
306 1 52.195 51.3125 -36.5872 
520 1 -12.1123 57.1432 -36.3115 
326 2 56.0199 52.3629 -35.0946 
339 2 57.0981 55.1599 -35.2494 
318 1 57.1595 54.0956 -35.4692 
331 2 51.6333 50.6426 -35.9665 
308 1 50.59 50.7453 -38.5272 
549 2 -8.74372 57.395 -38.0167 
540 2 -10.1312 56.847 -35.6549 
523 1 -10.7114 57.664 -35.9414 
519 1 -13.302 57.4956 -35.6444 
36 2 -7.85767 -14.8373 30.7058 
14 1 -7.14248 -14.7526 29.904 
518 1 -14.4361 56.9291 -36.162 
517 1 -14.5831 56.0414 -37.2324 
340 2 57.4896 52.7964 -37.3027 
319 1 57.9706 53.5642 -36.7115 
29 2 -7.32123 -12.6617 32.2163 
28 2 -7.14521 -10.4432 32.8205 
214 2 -5.95801 -12.3184 26.3113 
323 3 58.4208 53.4503 -35.3204 
327 2 58.303 54.3474 -37.456 
212 2 -2.90273 -12.3493 27.1554 
183 1 -1.35505 -8.64672 27.9433 
187 3 -2.90118 -10.0741 26.8094 
184 1 -2.17426 -9.78397 27.9663 
423 2 -5.05763 -8.74797 26.2488 
191 1 -3.51919 -11.4132 26.8715 
185 1 -2.0287 -10.5969 29.1387 
9 1 -5.77367 -14.5893 30.179 
7 1 -5.3101 -14.5647 31.6045 
199 2 -4.29519 -11.5149 27.6355 
10 1 -4.8557 -14.5242 29.0953 
207 2 -2.69826 -11.4828 29.2815 
33 2 -3.84045 -14.3448 29.2581 
4 1 -5.18017 -13.0782 32.1197 
3 1 -6.28287 -12.2516 32.3695 
31 2 -2.87397 -10.8283 32.6771 
5 1 -3.93614 -12.4688 32.2227 
6 1 -3.84066 -11.1321 32.6691 
1 1 -4.94693 -10.3583 33.0042 
11 1 -5.33207 -14.6837 27.8115 
30 2 -3.06041 -12.993 32.0381 
2 1 -6.21415 -10.9716 32.7998 
812 2 -0.52916 -12.9845 26.5651 
25 2 -2.8319 -8.16115 33.1128 
811 2 -0.202622 -11.131 26.6741 
790 4 0.0339179 -12.1139 26.4973 
422 2 -5.71798 -7.94511 28.442 
186 1 -1.05184 -10.3689 30.0423 
208 2 -0.88743 -11.0893 30.8674 
401 1 -4.67385 -7.78411 26.6284 
206 2 -1.42854 -7.96497 27.119 
182 1 -0.353137 -8.37321 28.8393 
181 1 -0.138291 -9.31447 29.8784 
292 2 -1.06639 -13.1865 29.303 
291 2 -0.421298 -13.7144 31.5875 
34 2 -4.65652 -14.6665 26.9607 
205 2 0.23883 -7.49255 28.6386 
427 2 -5.56643 -7.70783 30.2892 
400 1 -4.91077 -7.38538 27.9315 
269 1 -1.00726 -14.2548 29.5744 
268 1 -0.590767 -14.5116 30.8712 
287 2 -1.46969 -13.8346 33.6465 
204 2 1.08494 -9.83973 31.6191 
805 2 1.0934 -9.69103 26.8052 
179 1 1.10787 -9.15765 30.7613 
196 2 1.10166 -8.17855 31.2729 
414 2 -4.71635 -7.10861 31.5722 
396 1 -3.7467 -7.06989 25.7806 
273 3 -1.93913 -14.7328 27.4352 
8 3 -4.83769 -9.078 33.566 
190 1 9.17006 -9.3956 26.9972 
787 1 1.26384 -12.1999 25.7695 
210 2 7.96796 -11.2137 26.458 
189 1 7.88356 -10.1101 26.282 
197 2 6.60669 -8.52261 26.8994 
188 1 6.48302 -9.56566 26.5604 
180 3 5.5347 -10.5112 27.2641 
203 2 5.17098 -7.9522 28.6268 
801 1 1.81081 -9.67426 25.9905 
178 1 4.42407 -8.68817 28.8419 
173 1 4.62098 -9.99506 28.2333 
804 2 2.69249 -9.21182 26.4262 
177 1 3.33787 -8.35078 29.6463 
202 2 3.16532 -7.29282 30.0152 
174 1 3.73948 -10.9495 28.6921 
200 2 3.79244 -11.9839 28.2614 
176 1 2.38343 -9.34402 29.9362 
175 1 2.63625 -10.6831 29.4603 
201 2 1.98024 -11.4967 29.6777 
211 2 8.81543 -8.71966 27.7999 
84 2 68.5765 57.9466 26.8123 
198 2 10.0151 -9.94423 27.4049 
541 2 -15.36 54.1176 -39.3356 
554 2 -17.4573 56.3426 -39.2273 
555 2 -18.0502 53.51 -39.0604 
532 1 -15.7698 55.1347 -39.0765 
325 2 49.701 51.3715 -38.3648 
524 3 -15.8623 55.6992 -37.7164 
544 2 -15.3692 57.2639 -35.6862 
153 2 56.386 64.8867 25.7401 
136 1 57.4545 65.2405 25.7061 
528 1 -9.00272 60.6436 -38.8065 
545 2 -13.3687 58.1638 -34.7693 
410 3 -7.8446 -6.66973 30.7708 
548 2 -10.674 58.1525 -34.9515 
526 1 -9.1555 58.3557 -37.9249 
525 1 -10.1374 58.716 -36.9478 
551 2 -10.2694 61.9496 -37.6161 
527 1 -8.57629 59.2931 -38.7433 
529 1 -9.89012 60.9681 -37.7469 
138 1 58.0968 65.0421 27.0834 
165 2 58.0774 62.8358 27.0325 
552 2 -11.1233 60.2945 -36.1046 
530 1 -10.4408 60.0471 -36.8693 
430 2 -7.8954 -4.39938 30.7615 
408 1 -7.52355 -5.33038 30.3152 
429 2 -7.13126 -5.12039 29.3291 
143 1 58.344 63.7384 27.5952 
139 1 58.5749 66.0518 27.9147 
407 1 -6.57824 -6.18887 31.2452 
428 2 -6.47861 -5.75255 32.2647 
854 1 -2.268 0.771212 29.3773 
861 2 -2.66506 0.368225 30.3178 
406 1 -5.26815 -6.74218 30.7361 
140 1 59.0039 65.7488 29.2417 
859 2 -1.5915 0.466787 27.247 
865 2 -0.400947 -1.48829 26.428 
420 2 -2.39978 -5.27989 25.8233 
853 1 -2.05109 -0.073088 28.0992 
846 1 -1.32693 -1.40502 28.3815 
845 1 -0.460516 -1.95989 27.3586 
858 2 -3.04855 -0.402153 27.6149 
142 1 59.0114 63.5146 28.7631 
169 2 59.2592 62.1467 31.1097 
141 1 59.383 64.5135 29.7118 
847 1 -1.77964 -2.28366 29.4273 
868 2 0.169914 -5.25417 26.0082 
844 1 0.422669 -2.99949 27.6949 
851 4 -2.95466 -2.03884 30.2573 
164 2 59.2027 62.497 29.0208 
148 1 60.1817 62.7838 31.2653 
144 3 60.032 64.2691 30.9676 
149 1 60.5071 62.4202 32.6812 
402 3 -4.57041 -5.81514 29.8262 
156 2 60.5861 62.0579 30.5339 
421 2 -3.04213 -4.57092 28.0425 
398 1 -3.47891 -5.52405 27.6514 
399 1 -4.36532 -6.19453 28.4643 
397 1 -3.14624 -5.92421 26.3462 
848 1 -0.89175 -3.38806 29.6302 
849 1 0.318508 -3.78028 28.9415 
852 4 1.17768 -4.78996 29.4046 
873 2 1.14793 -5.24759 30.3414 
928 2 -0.00550049 63.168 96.2074 
152 3 60.3861 61.0681 33.1857 
850 1 -1.2289 -4.42658 30.7717 
855 2 -0.60738 -5.35865 30.7819 
856 2 -2.19132 -4.90429 30.5369 
857 2 -1.12123 -3.91715 31.8137 
871 2 -3.42851 -1.10126 30.1317 
150 1 59.1666 61.7664 33.366 
872 2 -2.60887 -2.56297 31.0794 
925 1 0.610788 63.9046 96.7104 
929 2 -0.0782889 64.6188 96.2571 
927 2 1.00688 65.3218 94.7968 
170 2 61.0846 63.259 33.1401 
926 1 0.458321 63.8288 98.1834 
930 2 -0.574563 64.0398 98.5487 
932 2 0.860649 62.8664 98.6316 
171 2 58.3076 61.8167 32.6473 
39 2 -4.53309 -6.17203 33.6001 
867 2 1.78851 -2.46158 26.0715 
922 2 3.25485 65.5659 90.9976 
108 3 6.86395 0.7078 25.7629 
863 1 1.45001 -3.35051 26.5804 
924 2 1.66048 65.0716 91.6968 
86 2 70.7425 58.7481 28.0107 
907 1 1.98168 64.847 94.9503 
66 3 68.9736 60.0499 27.4557 
63 1 68.9972 58.8991 26.5244 
874 2 2.03138 -4.57803 28.7388 
906 1 2.00583 64.0496 96.0556 
936 2 2.22404 62.268 97.6871 
916 1 2.38614 65.8774 91.5918 
911 1 3.24403 63.4368 96.4522 
914 4 3.24248 62.496 97.473 
935 2 4.13739 62.2112 97.9057 
866 2 2.37134 -3.75114 26.9997 
918 2 6.15885 63.1726 96.4967 
908 1 3.09212 65.098 94.0868 
910 1 4.34297 64.1429 95.8182 
124 2 7.66879 -0.880051 26.9535 
85 2 71.0484 59.9493 26.6706 
64 1 70.2672 59.4813 27.3153 
917 2 6.57859 64.6296 95.7229 
103 1 6.76384 -0.655166 26.3427 
912 1 5.81277 64.1543 96.4003 
919 2 5.83985 64.5453 97.3627 
909 1 4.38014 64.6908 94.5017 
934 2 7.80048 66.0277 90.8975 
913 4 5.62507 64.8255 93.672 
933 2 5.75379 65.7731 93.3605 
125 2 4.65111 -0.871353 26.7985 
104 1 5.64 -0.911583 27.3556 
112 2 5.64884 -2.00068 27.5914 
114 2 9.68072 -4.62818 25.772 
161 2 57.4191 66.3377 25.6399 
860 2 -1.36025 1.40516 29.4682 
162 2 58.5479 67.0871 27.6041 
862 2 -3.00597 1.53471 29.1655 
163 2 59.2446 66.6463 29.8305 
923 2 1.91716 66.6954 91.0722 
915 1 2.89521 66.2838 93.0157 
921 2 2.26331 67.0959 93.3728 
920 2 3.88283 66.6179 92.9377 
713 2 -7.50695 -26.1231 25.7564 
712 2 -8.41551 -24.3465 27.2541 
711 2 -9.47026 -24.775 25.8789 
708 1 -8.53148 -24.2136 26.175 
714 2 -6.36856 -24.9263 26.0597 
719 2 -6.39807 -23.2771 26.8497 
694 1 -7.34876 -22.0335 25.6912 
13 1 -7.51841 -15.063 28.6051 
333 2 50.2856 49.8723 -37.9102 
35 2 -8.56399 -15.4078 28.3665 
19 1 -8.39876 -15.1226 25.8123 
15 3 -6.95781 -15.2178 26.146 
40 2 -9.15552 -15.0962 26.6046 
689 1 -8.5324 -22.798 25.7674 
705 2 -11.8617 -19.5334 26.1258 
42 2 -9.16518 -17.7327 26.0745 
581 3 -8.3573 -17.5562 31.2032 
598 2 -8.51488 -19.6689 30.2391 
577 1 -8.52226 -18.9787 31.144 
576 1 -7.15116 -18.3097 31.4283 
585 2 -8.79998 -19.6566 31.9658 
702 2 -5.96654 -19.3035 25.9481 
12 1 -6.63643 -15.014 27.5157 
24 2 -5.91733 -15.2729 32.2947 
32 2 -4.31516 -15.0862 31.7562 
793 2 0.636572 -15.1321 26.36 
301 2 -4.59243 -16.7291 25.6384 
584 2 -6.54836 -18.2429 29.3913 
597 2 -6.66317 -18.5367 32.4052 
697 4 -6.14217 -22.4493 26.347 
718 2 -5.68759 -21.6047 26.6894 
298 2 -1.43409 -16.4623 26.061 
575 1 -6.08733 -18.4024 30.3405 
567 3 -5.35013 -19.706 30.5683 
596 2 -5.59072 -17.3854 30.3565 
277 1 -2.21867 -15.8375 26.5139 
290 2 0.40348 -15.5907 33.078 
270 1 -1.45003 -15.2354 28.6762 
285 2 -2.81048 -16.7108 26.8333 
589 2 -3.41534 -19.235 26.319 
566 1 -1.91877 -21.4064 26.3178 
591 2 -1.47215 -22.3883 26.471 
595 2 0.362513 -21.1765 27.9344 
267 1 -0.656893 -15.8521 31.2883 
568 1 -0.849786 -20.3124 26.338 
573 1 0.272897 -20.3413 27.2267 
588 2 -2.59457 -22.8576 28.672 
562 1 -3.15504 -21.8811 28.5323 
563 1 -2.96675 -21.08 27.3671 
271 1 -1.39205 -16.5694 29.1057 
294 2 -0.937712 -17.9425 30.7266 
272 1 -1.02415 -16.8961 30.3871 
293 2 -1.65722 -17.4124 28.4213 
587 2 -4.01322 -21.9133 30.4469 
561 1 -3.9618 -21.34 29.5052 
560 1 -4.60015 -20.0974 29.4058 
590 2 -5.01118 -18.4755 28.0307 
565 1 -4.54189 -19.4125 28.1959 
564 1 -3.66212 -19.858 27.2001 
265 1 -0.411319 -16.2477 32.7107 
288 2 -2.1808 -18.1262 33.672 
282 2 -0.060766 -17.2242 32.7831 
262 1 -1.69061 -15.9716 33.5043 
572 1 1.14183 -19.3035 27.2487 
571 1 1.12149 -18.2323 26.3575 
580 1 5.06421 -17.7255 25.9488 
574 3 2.03146 -17.1452 26.4196 
600 2 4.33513 -15.775 26.7154 
594 2 1.92536 -19.4014 27.9831 
582 3 5.54326 -17.6429 27.3224 
579 1 4.37459 -16.8466 27.0241 
586 2 3.17785 -18.282 27.9757 
578 1 2.97803 -17.2843 27.5394 
599 2 2.81616 -16.6671 28.4359 
280 3 -8.1464 -13.3409 35.3026 
275 1 -7.23883 -14.0574 36.1609 
276 1 -7.88179 -14.6796 34.8553 
296 2 -7.45159 -14.5751 37.153 
284 2 -7.21005 -14.8983 33.9816 
16 1 -3.45286 -8.6431 33.887 
37 2 -2.70668 -9.35159 34.1427 
17 1 -3.62338 -7.68299 35.0392 
38 2 -4.21293 -8.15878 35.8864 
283 2 -5.51067 -13.2297 35.309 
286 2 -3.58323 -13.5504 34.9417 
295 2 -5.36793 -13.5996 36.9029 
261 1 -2.07674 -14.6896 33.9196 
274 1 -5.74716 -14.0561 35.9715 
260 1 -3.24056 -14.5451 34.6665 
931 2 1.12699 64.5139 98.7563 
22 3 -2.83561 -6.49538 35.1378 
18 1 -4.20993 -6.29852 34.6419 
26 2 -5.10692 -6.03047 35.2333 
172 2 58.8031 62.2282 34.2929 
297 2 -8.45419 -15.6791 35.0525 
263 1 -2.42255 -17.1121 33.9022 
289 2 -4.05652 -17.7701 35.1281 
264 1 -3.54787 -16.904 34.6595 
266 3 -5.29189 -15.4695 35.6339 
259 1 -4.03331 -15.6109 35.0045 
