ITEM: TIMESTEP
450000
ITEM: NUMBER OF ATOMS
936
ITEM: BOX BOUNDS pp pp pp
-1.5000000000000000e+01 5.0000000000000000e+01
-1.5000000000000000e+01 5.0000000000000000e+01
-1.5000000000000000e+01 5.0000000000000000e+01
ITEM: ATOMS id type xu yu zu 
829 2 -10.0131 -8.7351 7.14329 
823 1 -10.4119 -9.39487 7.89232 
830 2 -11.2982 -9.80845 7.37348 
831 2 -9.86223 -10.338 7.99291 
822 1 -10.6529 -8.65193 9.24327 
828 2 -11.3431 -7.74316 9.1192 
827 2 -9.57704 -8.33482 9.4935 
820 4 -12.2684 -7.46916 11.2322 
824 2 -13.315 -8.74794 14.1525 
826 2 -14.3629 -8.31106 12.6877 
816 1 -12.1227 -8.89644 11.2902 
815 1 -11.2643 -9.49271 10.3005 
819 1 -13.8286 -9.12863 13.1628 
825 2 -14.5514 -9.92131 13.5119 
65 3 54.4784 57.1106 14.0803 
814 1 -11.0184 -10.8433 10.4199 
813 1 -11.4518 -11.548 11.5492 
817 1 -12.702 -9.66502 12.3255 
818 1 -12.2261 -10.9653 12.5976 
821 4 -12.6309 -11.7266 13.7475 
843 2 -11.7866 -12.3188 14.0861 
842 2 -13.1917 -11.1116 14.3826 
455 2 55.1632 53.0126 16.6559 
467 2 54.0091 53.9932 16.3671 
216 1 51.7226 56.8877 16.4876 
370 2 55.7888 54.696 15.0576 
447 1 53.3063 51.9556 16.3306 
834 2 -10.3983 -11.3142 9.69376 
748 2 55.008 51.4166 15.2427 
452 3 54.025 51.5273 15.0549 
835 2 -10.2826 -13.0184 12.5533 
836 2 -10.3044 -13.2968 10.8449 
832 1 -10.956 -12.9245 11.7127 
468 2 52.2837 52.2736 16.329 
837 2 -12.6978 -13.9806 12.7328 
833 1 -12.1583 -13.9529 11.7968 
839 2 -12.9488 -13.8388 10.9581 
362 1 56.6808 54.9567 14.5142 
383 2 56.4481 55.1022 13.4202 
838 2 -11.8196 -14.9439 11.6592 
446 1 54.1321 53.0558 17.0511 
361 1 57.9701 54.0924 14.9653 
366 3 57.8717 55.4976 15.1039 
841 2 -9.55655 -7.736 14.0883 
223 3 50.6975 55.9451 16.1983 
448 1 53.3236 50.8182 17.3945 
360 1 57.899 53.1201 16.0993 
250 2 57.7903 57.6131 16.0035 
840 2 -13.1795 -7.28064 11.8161 
251 2 55.5096 58.001 16.6475 
381 2 56.9182 53.1748 16.6155 
461 2 55.5777 54.8661 17.3899 
221 1 52.6787 56.7386 17.475 
231 1 50.5298 54.8644 17.1856 
252 2 51.4218 54.2565 17.266 
352 3 58.3906 51.802 15.6068 
345 1 58.2096 50.6755 16.439 
382 2 58.5491 53.6829 14.1332 
369 2 58.3576 53.6518 16.9903 
605 1 -2.8557 -11.6784 16.0901 
604 1 -3.13034 -10.3943 16.5243 
630 2 -2.83973 -9.54826 15.9248 
606 1 -3.19392 -12.7885 16.8706 
631 2 -2.35002 -11.8483 15.1754 
609 1 -3.00089 -14.2252 16.3715 
634 2 -3.94784 -14.829 16.4087 
626 2 -2.6704 -14.2192 15.3405 
638 2 -0.544784 -14.4198 15.6094 
255 2 61.0704 57.8117 16.4647 
93 1 0.507838 -8.20183 15.7625 
118 2 -0.477173 -8.17275 15.2797 
90 1 0.562317 -7.71008 17.1892 
242 2 59.7714 57.4383 15.4876 
238 3 62.5389 57.8073 14.3811 
616 1 -0.713077 -14.9532 16.6089 
110 2 0.915228 -7.40454 15.1528 
122 2 1.12527 -10.2536 17.4744 
95 1 1.26256 -9.48561 15.4228 
119 2 1.57824 -9.14958 13.2532 
96 1 1.7209 -9.8189 14.1505 
97 1 2.44676 -10.9769 13.9502 
120 2 2.80602 -11.2022 12.9219 
98 1 2.81422 -11.8298 14.9992 
101 3 3.66036 -12.9331 14.7936 
100 1 1.47028 -10.419 16.4912 
99 1 2.26349 -11.5404 16.2614 
198 2 6.92492 -9.61515 16.4233 
190 1 6.16552 -10.3316 16.7756 
211 2 5.22542 -9.85885 16.4315 
105 1 3.63158 -13.9973 15.8384 
126 2 4.08298 -13.6795 16.8001 
121 2 2.53646 -12.1855 17.0488 
113 2 2.66869 -14.248 16.2576 
128 2 6.00585 -13.8435 14.831 
194 3 6.33558 -11.6682 17.2868 
107 1 5.78678 -14.9021 14.842 
232 1 49.3451 53.9581 16.9307 
253 2 49.0069 53.9911 15.8822 
217 1 51.6545 58.1863 15.9705 
243 2 51.0211 58.2926 15.0635 
218 1 52.3037 59.3007 16.4882 
229 1 56.2076 58.7995 16.7244 
244 2 52.1133 60.3466 16.0726 
69 2 54.7706 58.2574 11.4797 
61 1 53.779 58.4007 11.9204 
81 2 52.7548 58.2424 13.7437 
60 1 53.8549 58.2572 13.4695 
228 1 57.5423 58.6048 16.3641 
82 2 53.6927 59.4362 11.6265 
51 3 55.9394 59.4174 13.523 
59 1 54.5494 59.5244 13.9414 
80 2 54.2583 59.6377 14.9773 
68 2 53.8634 60.3666 13.5811 
224 1 55.7974 59.9238 17.4191 
538 3 -14.8428 59.1652 -52.0295 
71 2 55.2724 61.7947 14.8148 
168 2 55.406 65.0782 15.9642 
147 1 55.5861 66.1463 16.0993 
45 1 56.3125 61.6823 14.5055 
44 1 56.7573 60.5144 13.8405 
46 1 57.1532 62.7111 14.7563 
72 2 56.7443 63.5397 15.2773 
226 1 57.9773 60.8364 17.1006 
49 1 58.1016 60.5484 13.4802 
166 2 57.7664 64.6416 17.3844 
554 2 -14.7032 61.3872 -51.6858 
219 1 53.3612 59.0833 17.406 
249 2 58.6895 61.6523 17.2091 
227 1 58.4805 59.6431 16.5381 
74 2 58.4283 59.696 12.8578 
73 2 60.0371 61.5207 13.2784 
67 2 59.0155 64.8291 14.812 
47 1 58.5337 62.7071 14.3543 
75 2 60.1817 64.0372 13.7736 
257 2 62.9851 59.3003 16.0239 
236 1 62.8465 59.0842 14.9391 
258 2 63.1929 59.9706 14.3678 
234 1 60.4375 58.2961 15.7741 
48 1 59.0079 61.5788 13.7208 
256 2 60.8261 59.1654 13.7983 
235 1 61.3678 58.6274 14.6205 
50 1 59.5187 63.8575 14.6111 
53 1 60.3201 64.5409 16.8995 
52 1 60.3224 63.5936 15.8808 
230 3 59.8704 59.5914 16.3098 
79 2 61.2998 61.8799 15.0745 
57 1 61.2116 62.5103 15.9284 
56 1 62.0754 62.3863 17.0309 
76 2 59.6298 65.4306 16.9253 
78 2 62.8291 61.6029 17.0323 
116 2 2.45511 -6.68579 16.8073 
524 3 -15.0486 61.4465 -48.9929 
517 1 -15.1848 61.0483 -47.661 
542 2 -16.1604 60.4265 -53.3731 
533 1 -15.0713 60.4062 -51.3701 
534 1 -16.0446 59.7771 -52.5258 
532 1 -15.841 60.6724 -50.0476 
553 2 -16.2888 59.6786 -49.8259 
541 2 -16.8561 60.9999 -50.32 
555 2 -17.0615 59.5413 -52.1975 
547 2 -16.7056 59.4455 -47.8664 
151 3 56.8737 66.8026 16.0607 
146 1 56.4639 66.3639 17.3537 
155 2 54.5794 66.6661 16.1478 
736 2 54.4682 45.6701 15.8132 
730 1 54.5221 45.8818 16.8376 
738 2 55.4337 45.4703 17.23 
372 2 58.1046 49.3419 14.8016 
373 2 58.1172 47.2949 15.8669 
737 2 53.7225 45.3993 17.4528 
734 2 55.3261 47.9635 16.5245 
347 1 58.124 48.1843 16.5207 
456 2 52.7574 49.9403 17.0137 
735 2 53.5791 47.755 16.6522 
729 1 54.548 47.4031 17.1024 
611 1 -1.9709 -15.0001 17.1905 
346 1 58.1741 49.3881 15.8731 
615 1 0.257508 -15.5642 17.3733 
637 2 1.27697 -15.5486 16.9376 
106 1 4.31574 -15.2681 15.3683 
127 2 3.70954 -15.8304 14.627 
129 2 5.87033 -15.2506 13.8268 
645 2 3.01843 -19.0684 15.8605 
109 3 5.51208 -15.7341 15.9921 
643 2 1.32087 -17.7995 17.1466 
623 1 3.28745 -18.8747 16.8971 
644 2 4.28291 -18.3276 16.8965 
246 2 52.6817 55.7061 17.8952 
469 2 52.6855 51.2223 18.2302 
460 2 57.0402 56.6583 18.319 
436 1 55.5667 55.084 18.4489 
438 3 53.9361 53.242 18.4674 
435 1 56.3481 56.1247 18.9831 
431 1 54.6719 54.2581 19.1239 
434 1 56.1769 56.4204 20.3516 
432 1 54.6645 54.492 20.5199 
458 2 54.0905 53.8268 21.185 
433 1 55.3176 55.5898 21.1036 
437 1 56.8929 57.5267 21.0822 
459 2 55.123 55.7205 22.1495 
733 2 54.3782 51.7372 20.0446 
732 2 55.2079 51.4225 21.5704 
731 2 56.1875 51.5141 20.1539 
726 1 55.1995 51.1537 20.4779 
536 1 -12.1769 52.7568 -40.6219 
535 1 -12.6215 54.1589 -40.8655 
531 3 -12.6764 54.542 -42.289 
747 2 55.0812 51.0679 18.0326 
558 2 -12.3348 52.3737 -42.7716 
462 2 57.2363 57.2021 22.1483 
550 2 -13.6475 56.4481 -40.6085 
528 1 -13.1867 55.8045 -42.5828 
527 1 -13.7727 56.6611 -41.6382 
539 3 -10.8993 52.2862 -41.0873 
526 1 -14.3615 57.8956 -41.8824 
36 2 -8.39657 -9.92708 24.8344 
529 1 -13.2866 56.3251 -43.9133 
35 2 -8.20759 -12.2747 24.08 
14 1 -7.72982 -10.6747 25.3431 
551 2 -12.9263 55.6648 -44.7246 
530 1 -13.9183 57.4961 -44.239 
559 2 -12.6087 50.9281 -41.9023 
537 1 -11.972 51.847 -41.936 
213 2 -7.07765 -10.6273 22.8819 
240 2 50.3909 55.158 18.2849 
466 2 54.2697 58.0609 22.1906 
556 2 -12.054 54.8428 -40.2008 
543 2 -13.5201 54.2465 -40.2084 
215 2 -8.06754 -11.1079 20.6733 
13 1 -7.66146 -12.019 24.959 
727 4 54.6417 50.1752 17.6931 
557 2 -12.718 52.2941 -39.7662 
454 2 57.8187 57.7265 20.6592 
552 2 -14.0859 57.7568 -45.2881 
193 1 -7.04339 -11.4455 20.8027 
220 1 53.5501 57.7454 17.8896 
245 2 54.3509 57.5103 18.5995 
749 2 54.9221 50.1785 22.682 
27 2 -8.00282 -14.4878 23.5859 
195 3 -6.71528 -12.5463 21.6532 
603 1 -3.71354 -10.1453 17.7422 
30 2 -5.26624 -8.10931 24.6108 
610 3 -4.04769 -8.77838 18.0099 
350 1 58.1418 50.611 17.8561 
375 2 58.1811 51.5255 18.4976 
115 2 -1.32723 -8.58668 17.9483 
214 2 -6.33035 -11.0365 20.0836 
607 1 -3.82745 -12.5582 18.1253 
608 1 -4.03644 -11.2464 18.5674 
632 2 -4.15892 -13.3429 18.758 
633 2 -4.52467 -11.0916 19.5106 
618 1 -4.82963 -8.59178 19.2385 
639 2 -5.844 -9.06654 19.2844 
192 1 -6.4612 -11.2957 22.3022 
191 1 -5.02061 -10.9546 22.6762 
187 3 -4.61262 -9.50881 22.4535 
299 2 -2.17799 -13.862 22.7159 
687 2 -0.972598 -10.7092 19.4051 
666 1 -1.55843 -11.1029 20.2727 
212 2 -4.37398 -11.7257 22.1957 
199 2 -4.79139 -11.456 23.6464 
300 2 -4.43525 -14.0766 21.5186 
184 1 -3.33554 -9.19671 22.9126 
207 2 -2.87054 -11.0345 23.9452 
185 1 -2.4745 -10.0731 23.625 
668 3 -2.12181 -12.426 20.2763 
688 2 -1.86745 -10.2217 20.8379 
186 1 -1.17402 -9.78283 23.9806 
208 2 -0.502509 -10.5071 24.5279 
277 1 -2.7591 -14.2873 24.7478 
273 3 -2.81093 -12.9036 25.1853 
665 1 -0.902424 -12.2981 21.0399 
672 2 0.173516 -13.9164 20.0139 
686 2 -0.792522 -12.0877 22.1303 
627 2 -4.42025 -8.8995 20.1805 
181 1 -0.67478 -8.51988 23.632 
183 1 -2.7305 -7.98234 22.5196 
664 1 0.418114 -12.9607 20.6128 
685 2 0.711077 -12.4757 19.6932 
202 2 0.792667 -10.4029 21.8256 
89 1 -0.451577 -7.95355 18.1454 
114 2 -1.08105 -7.64051 20.1478 
182 1 -1.46563 -7.62626 22.8531 
88 1 -0.317023 -7.43316 19.3915 
179 1 0.793916 -8.16124 23.8269 
204 2 1.16324 -8.5378 24.8022 
206 2 -3.37181 -7.31868 21.9405 
31 2 -3.06443 -6.99939 24.6301 
196 2 0.881189 -7.0703 23.9143 
301 2 -5.20445 -14.2027 23.0924 
163 2 58.8461 58.064 23.3421 
619 1 -5.11443 -7.07017 19.4117 
278 1 -2.93448 -14.4721 23.2226 
279 1 -4.34774 -14.5748 22.497 
298 2 -1.87838 -14.8457 25.0804 
12 1 -6.83535 -12.9502 25.6236 
5 1 -4.79089 -7.82394 25.5356 
6 1 -3.53783 -7.22126 25.5829 
15 3 -6.70854 -14.3356 25.4118 
660 3 1.3663 -13.059 21.728 
210 2 6.98165 -10.3629 18.9351 
189 1 6.13787 -10.7422 18.3464 
656 1 3.44533 -13.8204 22.6221 
679 2 3.08425 -13.5654 23.573 
657 1 2.62201 -13.6456 21.4989 
655 1 4.69092 -14.3916 22.5315 
658 1 3.11208 -14.0252 20.2339 
178 1 2.62698 -9.88116 20.8932 
203 2 2.49805 -10.668 20.1389 
197 2 4.04901 -10.6049 18.3144 
188 1 4.81828 -10.5813 19.0781 
680 2 2.50146 -13.9821 19.3602 
209 2 4.55662 -11.5226 19.5732 
177 1 1.65824 -9.71843 21.8372 
807 2 6.12214 -11.8791 23.318 
808 2 4.37966 -11.3342 23.1635 
806 2 5.05441 -12.4112 24.5302 
802 1 5.24244 -11.5385 23.8976 
180 3 4.87085 -9.34147 19.9203 
173 1 3.80209 -9.10369 20.7976 
174 1 3.91652 -8.06842 21.7338 
176 1 1.77825 -8.65045 22.7784 
801 1 5.555 -10.3291 24.9212 
654 1 5.17993 -14.7829 21.2603 
514 2 8.03607 -12.9698 22.9037 
493 1 9.12565 -12.8839 22.5894 
513 2 9.1858 -10.9126 21.9124 
659 1 4.37167 -14.597 20.1193 
677 2 7.3514 -14.5434 21.4112 
804 2 6.36582 -10.6427 25.5922 
175 1 2.94596 -7.86871 22.6927 
805 2 5.96277 -9.46675 24.4255 
812 2 5.79037 -7.96633 25.4283 
201 2 3.14078 -7.0271 23.3353 
200 2 4.80732 -7.40047 21.6189 
681 2 4.73504 -14.9463 19.1303 
782 1 4.20536 -10.0878 25.6173 
488 3 9.161 -11.1911 24.1653 
485 1 9.23687 -9.8542 24.6438 
91 1 1.64359 -6.89006 17.5227 
678 2 5.38741 -14.5174 23.4048 
482 1 9.1641 -7.17699 25.6162 
492 1 9.58064 -11.4769 22.7326 
515 2 9.44755 -14.2708 24.1535 
496 3 9.93733 -13.8616 21.9188 
508 2 10.2528 -8.92406 22.891 
494 1 10.0804 -13.8606 23.3575 
486 1 9.77179 -8.80045 23.9319 
487 1 9.80268 -7.49749 24.4012 
500 2 10.6567 -11.5862 22.4472 
516 2 10.9361 -13.5312 23.9612 
237 3 49.1891 52.8186 17.7701 
254 2 48.3302 54.6139 18.8534 
233 1 48.2313 53.8257 18.0351 
241 2 47.1669 53.8822 17.6689 
225 1 56.7262 61.0203 17.59 
154 2 56.1535 64.3928 18.0189 
145 1 56.9996 65.1101 18.041 
525 1 -14.4515 58.306 -43.1991 
247 2 53.9826 61.1752 17.6986 
248 2 56.3342 61.9807 17.9588 
453 3 53.5112 65.1081 18.2936 
222 1 54.3237 60.1341 17.8631 
451 1 53.7217 65.8696 19.4971 
549 2 -14.7863 58.5241 -41.0597 
472 2 54.6332 66.0847 20.1217 
471 2 52.4024 64.1752 20.0909 
450 1 53.3193 64.3708 19.5507 
144 3 56.5728 58.8502 24.309 
890 2 51.7667 62.0887 23.4067 
457 2 55.0606 63.2111 19.3254 
449 1 54.4403 63.5373 20.1604 
518 1 -14.2722 61.6055 -46.7487 
544 2 -13.5424 62.3718 -47.0992 
239 2 54.3234 60.1761 18.9875 
470 2 55.0926 64.3014 20.5934 
444 1 54.8146 58.9489 21.6824 
464 2 56.7888 62.1535 20.5761 
445 3 53.9623 62.5478 21.0856 
465 2 53.2659 60.2314 22.1837 
439 1 56.0882 58.8513 21.1027 
443 1 54.1834 60.1761 21.6062 
442 1 54.7769 61.3622 21.193 
440 1 56.7332 60.0381 20.6869 
441 1 56.1135 61.2749 20.8241 
884 1 52.0115 61.9448 24.5166 
896 2 52.9292 63.9337 23.1887 
897 2 53.9837 65.9386 22.7583 
876 1 53.3886 63.944 24.1607 
894 1 54.6902 65.9707 23.5797 
875 1 54.4003 64.7957 24.5588 
885 1 50.7298 62.1877 25.3123 
519 1 -14.2725 61.2482 -45.4385 
545 2 -13.5544 61.7875 -44.8257 
877 1 53.1227 62.8396 25.0432 
889 2 52.2867 60.8655 24.5126 
141 1 57.7059 59.6341 24.0861 
142 1 57.6569 61.0463 24.2989 
170 2 54.0657 58.293 23.8699 
149 1 54.15 58.8564 24.7931 
148 1 55.4103 59.6553 24.8054 
156 2 55.2745 60.6356 24.3106 
463 2 57.7704 60.0472 20.3675 
164 2 56.7801 61.4743 24.7955 
137 3 57.506 65.6098 19.3654 
548 2 -14.6711 60.4657 -42.8786 
905 2 56.6757 65.884 25.0598 
898 2 55.7091 65.8499 23.1234 
152 3 52.9802 59.2109 25.5682 
55 1 62.079 63.323 18.1195 
54 1 61.2252 64.3882 17.9356 
77 2 61.3341 65.1337 18.7063 
143 1 58.5763 61.9307 23.8304 
165 2 58.4405 63.0118 23.8713 
58 3 62.9405 63.3763 19.2262 
62 1 63.8194 62.2118 19.4918 
628 2 -3.93777 -5.45538 18.287 
641 2 -3.00486 -6.83971 18.747 
620 1 -3.82542 -6.24706 19.0116 
83 2 63.3413 61.2332 19.6856 
70 2 64.5461 61.883 18.7061 
66 3 64.1658 61.8348 21.9729 
640 2 -5.93134 -6.71197 18.764 
131 1 58.9952 65.3581 21.2056 
160 2 58.4924 62.9772 18.8552 
140 1 58.8983 59.1553 23.519 
130 1 58.3745 64.7898 20.0768 
132 1 59.8191 64.7603 22.0928 
139 1 59.901 60.0235 23.1208 
162 2 60.8204 59.6488 22.6046 
138 1 59.7829 61.4172 23.2324 
624 3 -4.37188 -6.24697 20.3303 
135 1 58.7899 63.4789 19.7754 
161 2 61.6045 61.8922 22.1284 
153 2 61.2935 62.9799 23.6196 
136 1 60.8243 62.412 22.7429 
133 1 60.0711 63.3711 21.8157 
134 1 59.6292 62.7659 20.6371 
159 2 59.9202 61.7142 20.4317 
87 1 0.767088 -6.65897 19.791 
94 3 0.719717 -6.16793 21.1246 
124 2 0.183189 -5.02783 23.1597 
103 1 1.21637 -4.69442 22.916 
112 2 0.720356 -2.86126 23.9755 
205 2 -1.13599 -6.66183 22.536 
63 1 64.56 62.5965 20.8097 
84 2 65.5754 62.8918 20.6582 
64 1 63.8161 63.2794 21.9389 
85 2 62.8426 63.7045 21.669 
86 2 64.3102 64.0911 22.3559 
25 2 -1.95348 -5.30811 24.8766 
158 2 60.2438 65.2833 22.9271 
37 2 -0.288818 -5.58784 25.2413 
102 1 1.6199 -5.01135 21.4837 
104 1 1.60826 -3.34013 23.561 
111 2 1.54812 -4.04772 20.9555 
92 1 1.71249 -6.33523 18.7979 
125 2 2.08872 -2.64758 22.8925 
108 3 2.22992 -4.58778 23.9281 
123 2 2.71035 -5.07627 21.5018 
117 2 2.57959 -5.71907 19.1047 
501 2 8.82946 -2.57848 22.6315 
495 3 2.76251 -1.2464 21.676 
491 1 3.6781 -0.223268 22.007 
510 2 4.30874 -3.70955 22.1257 
499 2 3.78599 0.610364 21.2748 
490 1 4.11348 -1.69579 21.4813 
511 2 4.69504 -1.68081 20.5442 
498 2 4.20274 -2.63588 23.336 
489 1 4.75791 -2.74329 22.3925 
481 3 6.22974 -2.56716 22.3547 
474 1 7.00175 -3.42445 23.1844 
475 1 8.36684 -3.29185 23.2303 
504 2 5.33225 -4.54431 23.8832 
479 1 6.41948 -4.43378 24.0273 
512 2 3.87449 0.117691 22.9929 
478 1 7.139 -5.05449 25.0596 
476 1 9.20175 -4.02924 24.0769 
477 1 8.55356 -4.8955 25.0257 
502 2 10.247 -3.80396 24.1786 
509 2 10.513 -6.79442 23.8464 
893 2 49.9263 62.5723 24.668 
546 2 -16.5086 58.6233 -45.6942 
520 1 -15.0937 60.1701 -44.962 
522 1 -15.9508 59.9607 -47.21 
540 2 -16.138 59.7062 -43.1048 
523 1 -15.089 59.6871 -43.5587 
521 1 -15.8991 59.5259 -45.9175 
167 2 55.9455 67.0013 18.1166 
473 2 52.9907 66.5582 19.8468 
901 2 53.7825 67.581 24.9754 
895 1 54.6742 67.3429 24.3065 
899 2 54.9618 68.1705 23.7153 
900 2 55.3925 67.394 25.058 
157 2 58.6323 66.3264 21.4555 
663 1 6.24617 -23.4168 25.3548 
684 2 6.95876 -23.9877 24.7344 
724 1 54.9725 49.6403 20.1385 
728 4 54.7769 49.1383 22.5746 
750 2 55.2621 48.3374 23.1974 
723 1 54.7925 49.2528 18.7895 
725 1 54.9405 48.7548 21.2092 
722 1 54.6417 47.8589 18.5464 
720 1 54.8896 47.339 20.9147 
721 1 54.7259 46.9215 19.5811 
742 2 53.9409 45.9611 22.3003 
739 1 54.9635 46.2638 21.9624 
745 2 55.1257 44.3554 20.7845 
746 2 56.023 44.3406 22.2981 
740 1 55.735 45.0099 21.4595 
744 2 56.7029 45.2862 20.943 
743 2 55.3657 46.6071 22.8783 
741 2 54.7313 45.8735 19.3098 
376 2 57.2204 46.6935 19.2354 
23 3 -7.88106 -17.5476 24.027 
40 2 -8.67538 -15.2383 24.8277 
19 1 -7.65812 -15.0413 24.4727 
368 2 57.9688 45.9673 17.8514 
20 1 -7.08024 -16.3453 24.0749 
21 1 -7.11808 -17.4277 25.2377 
374 2 58.2397 49.4277 19.6476 
635 2 -3.194 -15.6467 18.8826 
349 1 58.1712 49.4113 18.5697 
285 2 -3.47481 -15.012 25.1165 
612 1 -2.19256 -15.5808 18.4845 
377 2 58.3702 46.9465 21.3926 
351 1 58.1286 46.7732 18.6025 
281 3 -3.48616 -15.7135 22.8173 
613 1 -1.15265 -16.0945 19.2157 
348 1 58.1863 48.139 17.9531 
597 2 0.41504 -17.6784 24.4512 
636 2 -1.29875 -16.5231 20.2191 
614 1 0.142058 -16.0959 18.6716 
617 3 1.16261 -16.6952 19.4242 
367 3 65.7204 43.7396 21.9288 
385 2 63.9999 43.4509 20.4323 
378 2 60.5397 46.6339 22.6636 
354 1 59.3178 46.7062 20.865 
355 1 60.5014 46.5052 21.5665 
380 2 60.6743 46.2006 17.7616 
353 1 59.3597 46.5345 19.477 
358 1 60.6053 46.2164 18.8562 
357 1 61.7231 46.0892 19.6149 
379 2 62.6574 45.8877 19.0928 
356 1 61.7565 46.1701 21.0091 
371 2 64.9484 46.1189 21.5187 
384 2 64.1727 45.9725 20.0071 
364 1 64.6698 44.1269 21.0165 
363 1 64.144 45.5781 21.0489 
359 3 62.8894 45.8048 21.7822 
780 2 -0.0529762 -21.0491 23.7806 
585 2 -1.09156 -16.358 23.1309 
577 1 -0.180728 -15.6991 23.4689 
759 4 -0.558521 -20.6316 24.5842 
781 2 -1.53037 -20.1988 24.6512 
775 2 -1.42191 -17.7694 24.9164 
598 2 0.255139 -15.3018 22.5516 
581 3 0.257859 -15.3616 24.778 
41 2 -6.10182 -16.2083 23.5468 
576 1 0.790488 -16.6434 24.3003 
43 2 -6.15006 -17.9502 25.4411 
667 3 4.94253 -22.9713 24.9217 
365 1 66.2573 44.0823 20.6487 
764 2 2.78779 -22.5483 25.2334 
762 2 2.52321 -21.4263 23.7759 
757 1 2.13581 -21.8361 24.7321 
387 2 66.4908 43.4355 19.804 
386 2 66.6995 45.0071 20.3792 
622 1 2.24743 -18.0642 17.7371 
763 2 1.35199 -22.5201 24.3551 
621 1 2.48501 -16.9701 18.7102 
625 3 2.61464 -19.4197 18.0506 
662 1 5.93969 -21.9601 24.8582 
642 2 3.00044 -16.1471 18.1098 
652 1 6.60618 -15.3274 21.1143 
669 2 6.72029 -15.5425 20.0328 
575 1 2.18254 -16.6614 23.826 
584 2 2.1708 -16.8818 22.6803 
675 2 4.67219 -17.3414 21.7665 
596 2 2.56461 -15.6687 23.487 
629 2 3.41778 -17.3129 19.2022 
649 1 6.76062 -16.5556 21.9846 
648 1 8.02457 -16.8197 22.5461 
647 1 8.17762 -18.0108 23.2085 
674 2 8.86382 -16.1792 22.4404 
673 2 9.15282 -18.3128 23.5637 
650 1 5.70286 -17.4624 22.1095 
646 1 7.17214 -18.9386 23.4658 
653 3 7.35237 -20.2501 23.9192 
651 1 5.93557 -18.5423 22.9433 
670 2 6.54303 -22.1193 22.8961 
661 1 6.31833 -21.3083 23.5532 
676 2 5.08425 -19.1887 23.0865 
682 2 5.44994 -21.0809 23.0058 
567 3 2.99339 -17.4838 24.7892 
172 2 53.7422 57.089 26.0558 
24 2 -7.49085 -8.10595 26.0544 
422 2 -11.3478 -9.98915 27.7648 
400 1 -10.9778 -9.57128 28.7263 
399 1 -10.1771 -10.3257 29.5927 
397 1 -9.99795 -8.41505 30.9977 
401 1 -11.2543 -8.2453 28.9628 
423 2 -11.8434 -7.74328 28.1513 
396 1 -10.6538 -7.60104 30.042 
420 2 -9.55904 -7.93132 31.8812 
402 3 -9.8434 -11.7075 29.4958 
398 1 -9.75693 -9.72301 30.7783 
421 2 -9.25115 -10.312 31.5304 
32 2 -7.28587 -8.46806 27.6645 
414 2 -9.6455 -11.8692 27.3154 
283 2 -7.25604 -7.91446 32.9209 
427 2 -11.1444 -12.208 27.8198 
406 1 -10.1394 -12.3031 28.1707 
325 2 56.0908 51.295 -33.0717 
308 1 56.8774 51.0394 -32.2658 
333 2 56.3078 50.2297 -31.6764 
334 2 57.3673 50.8047 -34.9356 
407 1 -9.78836 -13.7612 28.2175 
428 2 -8.6987 -13.9182 28.0509 
305 1 57.1261 52.2608 -31.4059 
9 1 -6.90994 -10.2004 26.3749 
310 1 58.0783 50.378 -32.9534 
416 2 -8.60301 -7.17652 28.6564 
295 2 -7.03114 -7.30133 31.5168 
429 2 -11.0627 -14.0047 30.1558 
410 3 -10.8027 -14.7751 28.027 
408 1 -10.4807 -14.5529 29.4124 
7 1 -6.87253 -8.70637 26.6755 
304 1 58.3878 52.9654 -31.4451 
797 2 0.42262 -12.1626 26.3154 
798 2 0.0685506 -13.1508 28.583 
792 1 0.787134 -12.273 28.4297 
809 2 -0.0908688 -10.0589 27.8183 
810 2 0.298795 -8.15103 27.4236 
789 4 0.514778 -9.21958 27.616 
4 1 -5.46247 -8.11793 26.7343 
3 1 -4.84569 -7.78505 27.9737 
29 2 -5.33792 -8.10789 28.9196 
11 1 -6.06262 -12.4104 26.6709 
33 2 -5.53765 -10.7137 27.9594 
10 1 -6.06381 -11.1032 27.0717 
269 1 -2.6988 -11.431 27.1118 
270 1 -2.57134 -12.7296 26.578 
292 2 -2.9206 -10.6029 26.4345 
268 1 -2.65351 -11.1096 28.4473 
291 2 -2.77866 -10.0693 28.7131 
267 1 -2.52159 -12.2067 29.3222 
271 1 -2.35619 -13.7523 27.4938 
272 1 -2.37578 -13.5314 28.8326 
265 1 -2.60862 -12.0399 30.8143 
262 1 -3.2989 -10.6913 31.2218 
282 2 -3.07835 -12.9181 31.3311 
261 1 -2.56885 -9.724 31.8965 
260 1 -3.24356 -8.6044 32.347 
290 2 -1.60219 -12.1149 31.315 
287 2 -1.52937 -9.93322 32.1068 
2 1 -3.56056 -7.26193 27.9473 
288 2 -5.28654 -11.2491 30.305 
1 1 -2.87715 -6.95816 26.7631 
263 1 -4.66078 -10.5382 30.9304 
34 2 -5.39695 -13.1044 27.2177 
264 1 -5.26719 -9.37465 31.311 
259 1 -4.59639 -8.44119 32.1313 
289 2 -6.33598 -9.25478 31.0988 
28 2 -3.02456 -7.18765 28.8943 
266 3 -5.18354 -7.30736 32.7485 
294 2 -2.30044 -14.3363 29.5873 
579 1 0.899648 -8.05771 31.5147 
799 2 0.220804 -11.3736 28.625 
600 2 0.343485 -8.42328 32.3195 
602 2 0.137223 -7.49074 29.3636 
601 2 -1.125 -7.28788 30.5511 
293 2 -2.2541 -14.758 27.0669 
580 1 -0.0659747 -7.07657 30.3055 
311 1 58.2166 50.4933 -34.3543 
286 2 -2.69866 -7.86768 32.9586 
330 2 59.2596 52.7386 -32.1079 
335 2 59.5054 50.2351 -36.0499 
312 1 59.4143 50.0827 -34.9354 
274 1 -6.63563 -7.13871 32.5527 
796 2 1.8757 -13.063 26.6958 
803 2 3.53153 -12.1546 25.7279 
790 4 4.83439 -7.66257 25.7913 
783 1 3.31311 -11.1303 25.9758 
791 1 1.32049 -12.1478 26.9721 
785 1 1.75748 -9.55222 27.0354 
784 1 2.12751 -10.9256 26.6615 
589 2 2.92247 -14.0846 27.9312 
564 1 3.39358 -14.9753 27.635 
786 1 2.70056 -8.59983 26.6862 
586 2 2.00484 -9.0281 30.0161 
787 1 3.92919 -8.76201 26.0247 
593 2 1.78556 -13.0585 32.2893 
574 3 1.81168 -10.4565 31.7744 
800 2 1.60489 -12.3146 29.1321 
578 1 1.86218 -9.15327 31.0853 
599 2 2.83514 -8.61924 31.1848 
594 2 4.00762 -10.031 30.1093 
595 2 5.31906 -11.7263 28.9607 
572 1 3.75526 -11.1413 30.2852 
573 1 4.50747 -12.088 29.608 
571 1 2.65724 -11.4233 31.1575 
570 1 2.49946 -12.7867 31.5235 
569 1 3.23542 -13.7559 30.8433 
568 1 4.26418 -13.4798 29.8755 
507 2 8.13123 -10.3552 26.5257 
484 1 8.63384 -9.56636 25.8854 
483 1 8.48924 -8.23473 26.2574 
592 2 3.10151 -14.7328 31.2784 
583 2 6.17204 -14.1261 29.1348 
506 2 8.00581 -8.01148 27.2229 
566 1 5.16746 -14.5926 29.4021 
788 1 2.37246 -7.12613 27.0761 
794 2 2.13431 -6.95651 28.1156 
713 2 11.2693 -13.8477 29.6827 
709 1 10.4406 -14.5091 29.9233 
714 2 10.3869 -14.7482 30.9322 
715 2 9.47483 -13.9968 29.7272 
880 1 55.1273 64.6994 25.806 
891 2 50.9283 62.9684 26.0966 
892 2 50.2414 61.3825 25.8171 
171 2 54.581 58.3811 26.9429 
150 1 53.8436 58.1925 26.1727 
394 1 -10.7886 -6.06765 30.1264 
411 2 -11.5748 -5.67859 29.4682 
419 2 -11.0886 -5.79637 31.1096 
391 1 -9.41074 -5.47336 29.8502 
390 1 -8.46015 -6.15211 29.0644 
169 2 55.4608 60.2641 25.7607 
417 2 -9.80928 -3.66703 31.0577 
392 1 -9.09579 -4.18461 30.3662 
393 1 -7.90275 -3.58308 30.1165 
418 2 -7.79065 -2.5595 30.5901 
883 4 56.245 65.5495 25.9465 
903 2 53.0045 60.7574 26.6703 
902 2 53.8859 61.5785 28.0216 
882 4 53.3864 61.5897 27.1808 
888 2 55.5005 64.6983 28.2261 
887 2 55.2115 63.1918 28.8216 
881 1 55.5698 63.6786 27.9208 
886 2 56.6102 63.313 27.7838 
904 2 56.8441 65.0892 26.6547 
879 1 54.7243 63.6143 26.6407 
878 1 53.7735 62.636 26.2762 
388 1 -6.89123 -4.25098 29.4294 
280 3 -8.70229 -5.78609 32.766 
389 1 -7.27278 -5.47974 28.8805 
275 1 -7.30496 -5.87434 32.9989 
582 3 1.04954 -6.71729 31.1882 
409 3 -6.44388 -0.560164 27.3705 
415 2 -6.4929 -5.97508 28.2219 
405 1 -5.0849 -0.740183 26.9492 
426 2 -4.20491 -0.381639 27.529 
424 2 -5.87384 -1.71818 29.6916 
403 1 -5.38939 -2.31028 28.9554 
404 1 -5.93737 -1.89271 27.5608 
425 2 -6.09424 -2.81829 26.9482 
412 2 -4.38085 -1.82643 29.0732 
395 3 -5.58718 -3.76149 29.169 
296 2 -6.55195 -5.04267 33.1357 
22 3 -2.24279 -2.95559 25.9331 
17 1 -1.24556 -3.93891 26.2801 
16 1 -1.23271 -5.39243 25.7534 
18 1 -2.48367 -3.59967 27.1863 
39 2 -3.20144 -4.4332 27.4321 
38 2 -0.241115 -3.70015 26.6697 
860 2 -4.20553 -0.803001 31.392 
26 2 -2.26112 -3.11928 28.1747 
8 3 -1.54683 -6.37796 26.8144 
874 2 -1.18997 -5.37998 28.6953 
856 2 -4.15775 -5.33058 31.3192 
855 2 -3.70496 -5.06661 29.6187 
857 2 -2.85241 -6.32282 30.5352 
850 1 -3.25956 -5.2309 30.6221 
852 4 -0.463007 -5.3597 29.5496 
849 1 -0.857402 -4.3392 30.57 
848 1 -2.1748 -4.17527 31.0733 
872 2 -4.79174 -3.73415 31.7643 
851 4 -4.0588 -3.25064 32.3872 
847 1 -2.7004 -3.16909 31.9167 
846 1 -1.81458 -2.1093 32.2576 
844 1 -0.00718057 -3.30444 31.0187 
873 2 0.53967 -5.07569 29.328 
845 1 -0.487903 -2.20509 31.8196 
865 2 0.191396 -1.39888 32.2006 
861 2 -2.76446 0.172861 31.1357 
854 1 -3.41499 -0.192969 31.9612 
853 1 -2.42115 -0.890754 32.9821 
871 2 -4.0927 -3.00162 33.3908 
413 2 -4.73432 -1.02368 25.9559 
862 2 -4.08831 0.649356 32.2955 
858 2 -1.66485 -0.197277 33.386 
811 2 4.27675 -6.80115 25.7336 
503 2 6.70794 -5.71812 25.7632 
795 2 1.48752 -6.76111 26.5086 
793 2 3.14829 -6.38512 26.8311 
863 1 1.4511 -3.12133 30.5543 
867 2 1.66481 -3.77647 29.7358 
866 2 1.65042 -2.09742 30.0749 
869 2 2.66829 -4.52396 31.8292 
870 2 2.48503 -3.00911 32.5791 
864 1 2.57795 -3.44181 31.607 
497 2 8.68207 -5.6357 27.026 
868 2 3.61704 -3.15884 31.269 
480 1 9.25589 -5.7136 26.0921 
505 2 10.2487 -5.34998 26.29 
671 2 6.60502 -23.5738 26.4398 
42 2 -7.44097 -16.9861 26.2396 
430 2 -9.82263 -15.1294 30.0341 
756 1 0.295178 -20.4018 25.6695 
315 1 59.151 49.8911 -32.179 
771 1 -1.69221 -17.6983 25.9963 
777 2 -2.65754 -17.1485 26.0503 
774 2 -2.51213 -19.7833 26.2569 
776 2 -0.932183 -17.0202 26.4017 
313 1 60.4682 49.5052 -34.2416 
344 2 65.6648 49.1053 -36.3802 
314 1 60.2751 49.4491 -32.8063 
316 3 61.5243 48.8792 -34.8977 
341 2 63.3693 49.195 -33.5001 
342 2 63.4071 47.6738 -36.1333 
773 2 -2.10578 -18.9574 27.7411 
770 1 -1.70181 -19.1513 26.701 
772 2 0.0472272 -18.704 28.5666 
751 1 -0.228664 -19.5799 26.744 
752 1 0.580979 -19.2675 27.8138 
320 1 62.8205 48.4774 -34.1923 
321 1 63.8834 48.0101 -35.1849 
328 2 62.7049 47.7287 -33.3709 
322 1 65.131 48.9604 -35.3915 
343 2 65.0143 49.9425 -35.0419 
336 2 61.1128 49.0661 -32.2125 
324 3 65.164 47.7453 -34.6013 
755 1 1.67062 -20.8112 25.8002 
590 2 1.93351 -15.3075 26.1778 
769 2 2.11881 -21.0308 30.2692 
768 2 3.74223 -21.1629 29.7022 
683 2 6.10631 -21.2004 25.6471 
591 2 5.53201 -15.244 30.2141 
753 1 1.89823 -19.6694 27.9108 
765 2 2.19431 -18.4048 29.6267 
761 1 3.00292 -20.4099 30.1327 
767 2 3.28832 -19.9093 31.0542 
760 1 2.70212 -19.2719 29.1262 
565 1 2.84575 -15.707 26.6088 
705 2 8.42061 -16.202 32.8994 
563 1 4.5736 -15.4005 28.2964 
778 2 4.1816 -21.3951 26.0911 
754 1 2.53691 -20.4715 26.8552 
560 1 3.36847 -16.8484 25.9817 
702 2 8.64016 -19.9517 27.0302 
701 2 7.54157 -20.8404 28.0867 
587 2 5.06643 -18.1528 26.2987 
758 4 3.87746 -20.8791 26.9372 
561 1 4.52629 -17.268 26.6885 
588 2 6.0463 -17.1196 28.1304 
766 2 3.63797 -18.7336 28.7713 
562 1 5.08611 -16.6279 27.7422 
779 2 4.40085 -20.4938 27.7221 
707 2 6.68533 -16.5052 33.0952 
695 1 7.7408 -19.8659 27.6592 
717 2 5.93443 -20.3678 29.37 
693 1 8.00624 -18.7077 28.6661 
699 1 7.67744 -16.9716 33.2204 
691 1 8.10607 -18.0353 30.8116 
698 1 7.80502 -18.2349 32.2873 
703 2 8.54719 -18.8814 32.7373 
704 2 6.94479 -18.931 32.3416 
692 1 7.4583 -18.9981 29.9149 
716 2 6.15352 -19.9355 31.2366 
696 4 6.3851 -19.8404 30.2168 
700 2 7.07028 -19.5795 26.8654 
718 2 8.48982 -17.7164 25.9792 
694 1 8.83227 -17.6234 28.1921 
690 1 9.04834 -17.0157 30.5801 
697 4 8.94325 -17.2438 26.8278 
719 2 9.19688 -16.2102 26.7619 
710 2 9.49599 -16.5404 31.4738 
711 2 10.8257 -15.6712 28.0088 
712 2 11.5096 -16.3259 29.3032 
708 1 10.5513 -15.8458 29.0603 
689 1 9.4317 -16.8581 29.2434 
331 2 55.165 52.1518 -30.4854 
338 2 55.8122 56.0577 -28.2253 
307 1 56.366 53.7177 -29.6183 
332 2 55.6364 53.9204 -28.893 
326 2 56.6866 55.2026 -27.2203 
317 1 56.8926 55.9532 -27.9791 
306 1 56.1282 52.6759 -30.4751 
323 3 57.6536 57.3228 -25.797 
318 1 57.4052 57.183 -27.2241 
302 1 57.5755 54.4411 -29.748 
339 2 57.3928 58.1171 -27.8845 
309 3 57.8869 55.6393 -29.051 
319 1 58.7815 56.8936 -26.5734 
914 4 0.234033 55.4711 100.13 
935 2 -0.0669803 54.4184 100.136 
910 1 -0.523202 57.8077 99.9495 
931 2 -3.98402 54.8705 102.18 
930 2 -3.58379 53.2898 101.877 
926 1 -3.13142 54.2644 101.819 
932 2 -2.31069 54.4672 102.549 
329 2 59.5199 54.5466 -30.7025 
303 1 58.5441 54.0201 -30.6351 
340 2 59.1097 55.8151 -26.5644 
906 1 -2.18911 55.9948 100.092 
925 1 -2.6907 54.5676 100.312 
929 2 -3.56288 54.4279 99.7196 
928 2 -1.92332 53.7853 99.9176 
911 1 -0.798313 56.3825 99.9835 
936 2 1.16903 55.9366 100.119 
327 2 59.5766 57.5644 -26.9346 
927 2 -4.21969 56.63 100.296 
907 1 -3.14331 56.987 100.301 
912 1 1.02346 58.079 99.864 
919 2 1.58176 57.9323 100.776 
918 2 1.59245 57.595 99.0562 
297 2 -8.46505 -6.7838 34.7668 
276 1 -8.50277 -5.86704 34.1746 
284 2 -8.30832 -5.03304 34.93 
934 2 -0.0787559 60.3339 99.9215 
859 2 -3.00625 -1.16365 33.8909 
933 2 -1.74519 60.6615 99.0821 
917 2 1.18091 59.1104 99.5792 
908 1 -2.78537 58.3524 100.103 
909 1 -1.43621 58.8293 99.972 
913 4 -1.06061 60.2028 99.786 
920 2 -4.82484 58.2705 100.051 
915 1 -4.07602 59.0779 100.205 
921 2 -4.09105 59.7439 99.3207 
922 2 -5.21005 60.3686 101.488 
924 2 -4.31807 59.1921 102.431 
923 2 -3.42501 60.5051 101.735 
916 1 -4.29439 59.821 101.558 
337 2 59.0553 49.893 -31.0918 
706 2 7.75802 -17.1542 34.2482 
