ITEM: TIMESTEP
3600000
ITEM: NUMBER OF ATOMS
936
ITEM: BOX BOUNDS pp pp pp
-1.5000000000000000e+01 5.0000000000000000e+01
-1.5000000000000000e+01 5.0000000000000000e+01
-1.5000000000000000e+01 5.0000000000000000e+01
ITEM: ATOMS id type xu yu zu 
832 1 -8.04023 -8.65179 15.6088 
835 2 -8.25901 -9.08778 14.5916 
836 2 -8.92642 -9.01928 16.2408 
813 1 -8.01208 -7.11955 15.5568 
257 2 53.8219 57.9017 16.4102 
258 2 54.1303 56.583 17.253 
236 1 54.1189 57.6488 17.4631 
498 2 -7.01166 -13.1817 16.6628 
324 3 54.4733 54.432 -47.8145 
344 2 52.5298 53.3863 -48.4406 
322 1 53.0526 54.1514 -47.9192 
343 2 52.3075 54.8708 -47.6367 
834 2 -6.80263 -7.10063 13.8009 
833 1 -6.77118 -9.34198 16.1345 
837 2 -6.8202 -10.4152 16.0804 
839 2 -5.94431 -8.96602 15.5674 
413 2 -5.61064 -9.17823 12.7382 
426 2 -4.18515 -9.02023 13.8078 
425 2 -4.46117 -8.73437 10.7866 
405 1 -4.57849 -9.50793 12.8814 
424 2 -1.9898 -8.37943 10.5965 
404 1 -3.78932 -9.12013 11.5356 
409 3 -3.85352 -10.4377 12.0535 
504 2 -5.63009 -11.8888 15.3044 
479 1 -4.60783 -12.0831 15.7232 
478 1 -3.57825 -11.8867 14.8349 
476 1 -1.96442 -12.187 16.5398 
477 1 -2.21402 -12.054 15.1433 
503 2 -3.78162 -11.6217 13.7886 
412 2 -1.82472 -8.6837 12.1648 
403 1 -2.5497 -8.19742 11.5137 
73 2 61.9037 57.0147 14.728 
474 1 -4.34861 -12.5254 17.0521 
418 2 -0.411697 -7.39167 12.5728 
67 2 62.3417 55.1402 15.9986 
79 2 64.2257 57.0737 16.6771 
47 1 61.4968 56.9972 16.8253 
50 1 62.0381 55.5485 16.9915 
838 2 -6.41375 -8.95163 17.1281 
480 1 -1.0423 -11.8519 14.1754 
497 2 -1.44387 -11.4813 13.2419 
505 2 -0.565232 -12.8669 14.0125 
509 2 -0.535833 -9.22722 13.5044 
487 1 0.152559 -9.56743 14.2728 
482 1 0.0418819 -10.9192 14.6614 
48 1 61.5582 57.631 15.5735 
486 1 1.15061 -8.79748 14.8339 
502 2 -0.876777 -12.2288 16.8843 
475 1 -2.98989 -12.5802 17.3727 
483 1 0.883906 -11.4351 15.6967 
506 2 0.808126 -12.4681 16.0278 
75 2 61.2561 54.8403 17.3453 
508 2 1.32116 -7.73853 14.4267 
484 1 1.8676 -10.6052 16.193 
485 1 2.08738 -9.28471 15.7923 
488 3 3.12978 -8.54449 16.3333 
872 2 4.54923 -9.07264 14.3673 
494 1 5.43091 -9.16718 13.7208 
847 1 7.15206 -9.44019 15.5394 
850 1 5.21287 -10.3434 16.8616 
515 2 5.04383 -9.62615 12.8369 
851 4 6.56007 -9.97056 14.3614 
507 2 2.50806 -11.1114 16.9077 
516 2 5.71533 -8.12066 13.4262 
871 2 7.41952 -10.0749 13.656 
857 2 4.87722 -10.7262 15.889 
848 1 6.53576 -9.52726 16.7898 
846 1 8.2858 -8.50744 15.6349 
855 2 4.38261 -9.82505 17.3657 
859 2 8.73048 -8.74343 13.5212 
853 1 9.18953 -8.40856 14.4703 
492 1 3.07793 -7.05515 15.9259 
514 2 5.14794 -7.18002 16.4631 
856 2 5.40602 -11.3061 17.3683 
845 1 8.63889 -7.94035 16.8821 
862 2 11.1139 -9.57353 13.9392 
860 2 10.1652 -10.3225 15.1224 
854 1 10.4287 -9.32224 14.8107 
861 2 10.9009 -9.03909 15.7656 
858 2 9.48392 -7.37252 14.1542 
865 2 9.61223 -7.38112 16.9535 
814 1 -7.34263 -6.49563 14.4622 
816 1 -7.91791 -4.21636 15.1737 
820 4 -7.75877 -2.79568 15.1153 
815 1 -7.27206 -5.13165 14.3118 
244 2 55.7876 64.2353 15.1723 
817 1 -8.68557 -4.89268 16.1908 
840 2 -8.36542 -2.48079 15.9648 
218 1 55.4881 65.1078 15.7986 
226 1 52.9903 61.2513 14.847 
249 2 53.2287 60.3781 14.1403 
225 1 53.0744 62.5359 14.344 
248 2 53.43 62.7152 13.3489 
222 1 53.1568 65.0712 14.7216 
239 2 53.5905 65.0989 13.7394 
224 1 52.8697 63.6378 15.2124 
818 1 -8.72214 -6.28378 16.4141 
227 1 52.5729 60.9691 16.1702 
247 2 52.2304 65.5926 14.7578 
219 1 54.1927 65.6648 15.7004 
217 1 56.4525 65.7339 16.5687 
243 2 57.4342 65.3065 16.6568 
824 2 -9.70057 -3.05624 17.013 
819 1 -9.30126 -4.02751 17.3134 
230 3 52.681 59.6159 16.6358 
229 1 52.4295 63.4547 16.5196 
228 1 52.3061 62.1142 16.9256 
828 2 -6.92336 -3.54247 12.7454 
251 2 52.2436 64.2402 17.2045 
831 2 -6.77255 -5.87153 11.5132 
823 1 -5.95508 -5.43857 12.0503 
829 2 -5.3065 -6.21628 12.454 
830 2 -5.33327 -4.92902 11.375 
822 1 -6.42191 -4.44922 13.2005 
82 2 58.328 63.9217 15.1545 
61 1 58.5443 62.8867 15.4823 
395 3 -2.96783 -6.77594 11.6965 
393 1 -0.699501 -6.3163 12.696 
388 1 -2.00442 -5.93039 12.285 
417 2 1.0944 -5.83976 13.7963 
392 1 0.13734 -5.43227 13.3514 
827 2 -5.57383 -3.96243 13.6166 
69 2 59.3301 62.5138 14.7867 
415 2 -3.36785 -4.24256 12.1254 
389 1 -2.38621 -4.57625 12.4129 
391 1 -0.310452 -4.15555 13.6345 
49 1 61.2045 58.9543 15.4424 
74 2 61.2993 59.38 14.4299 
390 1 -1.59449 -3.72271 13.1237 
416 2 -1.97845 -2.69002 13.2749 
51 3 60.2074 60.9986 16.2995 
420 2 -1.65328 -3.53403 16.0413 
397 1 -0.709289 -3.74018 16.6106 
44 1 60.7931 59.7431 16.532 
411 2 0.280802 -2.12476 14.4333 
396 1 0.518472 -3.66877 15.9257 
394 1 0.566384 -3.21194 14.4593 
60 1 58.9324 62.9888 17.0029 
81 2 59.7124 63.7425 17.0756 
59 1 59.5689 61.6928 17.4645 
419 2 1.58253 -3.23775 14.066 
401 1 1.65969 -3.93563 16.7002 
513 2 2.8708 -6.79333 14.8797 
500 2 2.20948 -6.38539 16.1565 
423 2 2.66237 -3.97377 16.3112 
493 1 4.37763 -6.41266 16.3575 
496 3 4.53416 -5.17663 16.4238 
220 1 53.8631 66.8333 16.4176 
245 2 52.8772 67.2078 16.3655 
216 1 56.0656 66.8152 17.3873 
221 1 54.7508 67.3246 17.352 
711 2 -3.2156 -23.3876 17.448 
684 2 -1.7309 -18.5334 14.9838 
662 1 -2.85218 -17.7115 16.7719 
661 1 -3.0375 -16.399 15.9707 
667 3 -3.58673 -18.8699 16.3957 
670 2 -3.91991 -16.5243 15.3746 
663 1 -2.18236 -18.8982 15.9664 
671 2 -1.40669 -19.4961 16.5194 
715 2 -5.11403 -21.9927 16.2056 
653 3 -1.75048 -15.9937 15.3583 
646 1 -0.740646 -15.6506 16.2502 
682 2 -3.40831 -15.8182 16.7891 
651 1 0.620398 -15.8857 15.8961 
676 2 0.860585 -16.3324 14.9203 
712 2 -2.5475 -21.9881 16.9156 
709 1 -4.78469 -21.8386 17.2645 
713 2 -4.86126 -20.7413 17.3305 
512 2 -6.30866 -15.4401 17.4047 
650 1 1.66686 -15.6862 16.8039 
675 2 2.72807 -15.8393 16.5206 
510 2 -7.42261 -12.0321 17.748 
383 2 56.5805 56.4318 18.3835 
321 1 53.9447 53.6747 -46.7179 
342 2 54.1987 52.6028 -46.57 
316 3 53.6948 53.4343 -44.2259 
320 1 53.8389 54.3622 -45.3418 
341 2 53.0389 55.0387 -45.5554 
313 1 53.82 54.0268 -42.9143 
328 2 54.7225 55.1266 -45.2948 
312 1 53.586 53.2015 -41.7513 
314 1 54.1059 55.3559 -42.6601 
336 2 54.1993 56.0304 -43.4996 
595 2 -13.4079 -14.1583 22.5731 
315 1 54.3067 55.9002 -41.3794 
337 2 54.5918 56.9793 -41.2076 
641 2 -7.7976 -7.91542 23.9004 
335 2 53.2177 52.1832 -41.866 
380 2 56.3568 51.8941 20.821 
256 2 52.1843 57.3088 18.3132 
362 1 56.3353 57.4779 18.6605 
311 1 53.6124 53.6943 -40.4865 
310 1 54.0128 55.0347 -40.2975 
374 2 57.3406 53.8867 23.5206 
358 1 56.208 50.9032 21.3311 
238 3 53.5371 57.8395 19.906 
235 1 53.0243 57.9931 18.5013 
375 2 57.6 55.9299 22.1862 
350 1 57.9721 55.0185 21.8102 
599 2 -13.6827 -10.4138 20.7843 
461 2 51.8915 57.4386 23.2033 
436 1 51.5456 57.8896 24.1287 
353 1 56.9905 50.4767 22.4246 
349 1 57.7346 53.8331 22.535 
460 2 50.1468 56.3519 24.3782 
370 2 55.7583 57.335 19.5709 
435 1 50.5364 57.2377 24.8218 
334 2 53.2841 53.0851 -39.6105 
511 2 -7.27855 -13.4751 19.6753 
379 2 54.6954 50.5645 19.9521 
490 1 -7.46761 -13.7911 18.6439 
357 1 55.2867 50.0721 20.7826 
381 2 57.4385 57.3734 21.0081 
573 1 -14.0866 -13.4864 23.0759 
594 2 -13.791 -12.0755 21.4955 
572 1 -14.3318 -12.2994 22.3849 
578 1 -14.616 -9.84476 20.9188 
600 2 -13.6371 -7.9583 21.5247 
579 1 -14.3008 -8.32512 20.7586 
620 1 -7.67454 -6.89207 23.8502 
386 2 53.0169 51.1419 19.564 
582 3 -14.6325 -7.68186 19.5103 
568 1 -14.8742 -13.7438 24.2318 
584 2 -7.8077 -14.8231 25.2694 
495 3 -8.37801 -14.7852 18.1167 
387 2 51.2481 51.0587 20.1168 
365 1 52.0199 50.6374 19.4152 
563 1 -13.1156 -14.8843 25.5967 
566 1 -14.6117 -14.9989 25.1071 
489 1 -6.69287 -12.9355 17.68 
481 3 -5.25121 -12.9163 18.0499 
368 2 58.1745 51.5652 23.9569 
351 1 58.1557 51.3501 22.8765 
57 1 64.313 56.5278 17.5712 
52 1 63.2156 55.6943 17.9834 
360 1 58.1607 57.4411 20.1889 
501 2 -2.65497 -12.9443 18.396 
372 2 59.5618 53.8464 19.2051 
352 3 58.8197 56.1883 19.7737 
56 1 65.4115 56.687 18.3558 
53 1 63.2307 55.1804 19.2444 
76 2 62.3103 54.6503 19.5967 
610 3 -5.60937 -8.81841 24.6578 
345 1 58.6429 55.0518 20.5926 
346 1 59.207 53.83 20.1917 
373 2 59.5119 51.6741 20.5678 
54 1 64.3831 55.3842 20.0269 
347 1 59.0737 52.6196 20.8804 
77 2 64.455 54.7927 20.937 
348 1 58.3496 52.6681 22.0831 
604 1 -5.16147 -11.1353 25.2803 
633 2 -2.93738 -8.93245 23.857 
607 1 -2.62198 -11.1217 24.2174 
608 1 -3.32793 -9.91981 24.2688 
603 1 -4.67308 -9.88615 24.7667 
605 1 -4.39887 -12.2962 25.3174 
632 2 -1.70066 -11.0755 23.6809 
606 1 -3.10117 -12.3669 24.6666 
609 1 -2.26523 -13.6169 24.5724 
634 2 -1.15096 -13.5069 24.2792 
611 1 -2.99953 -14.6334 23.6437 
635 2 -2.43462 -13.5189 21.7318 
612 1 -2.96687 -14.3548 22.2505 
686 2 -0.219024 -9.77186 24.7524 
618 1 -5.05848 -7.56768 24.145 
627 2 -4.53578 -7.53419 23.1219 
376 2 58.9896 50.6237 22.7679 
626 2 -2.21836 -14.0151 25.6209 
55 1 65.5522 56.0221 19.6115 
665 1 0.857614 -9.6102 24.7785 
680 2 0.483639 -14.2212 23.3019 
72 2 61.1535 57.3961 18.9401 
429 2 0.894018 -7.29761 22.1361 
904 2 65.0101 57.9052 24.2889 
369 2 58.8514 58.1145 20.7304 
382 2 58.3314 57.9355 18.083 
46 1 61.1345 57.7643 17.9395 
660 3 1.15503 -11.8129 23.7185 
658 1 1.11768 -13.8588 22.445 
639 2 -4.20534 -7.08177 24.6846 
888 2 62.5331 58.1176 21.7114 
674 2 -0.184566 -14.4282 19.4644 
673 2 -1.99219 -14.9588 17.8213 
648 1 0.051551 -14.8508 18.4328 
668 3 1.3268 -8.15585 24.8776 
672 2 1.56512 -9.82981 22.7657 
78 2 66.2698 57.2648 17.7912 
659 1 1.52325 -14.7091 21.4177 
657 1 1.42507 -12.5064 22.5452 
664 1 1.62926 -10.3764 23.7152 
844 1 7.94672 -8.16964 18.1006 
849 1 6.74339 -8.87903 18.0349 
58 3 66.7834 56.0053 20.2943 
655 1 2.46972 -12.7746 20.2726 
678 2 3.01179 -12.3306 19.4026 
679 2 2.13038 -10.9495 21.3217 
656 1 2.10579 -12.0495 21.3716 
62 1 67.8574 56.8302 19.7641 
194 3 6.94075 -8.61781 21.9978 
84 2 69.1335 56.0013 21.2426 
64 1 70.1272 57.2069 19.7242 
852 4 5.80369 -9.0186 19.1547 
873 2 6.1064 -8.30306 22.4096 
189 1 6.66552 -9.98486 21.4907 
188 1 5.88032 -10.9868 22.3735 
198 2 4.99288 -10.6021 20.2908 
190 1 5.98729 -10.1873 20.1083 
211 2 6.49566 -10.9908 19.6647 
210 2 7.69118 -10.3934 21.4978 
180 3 5.57184 -12.2914 21.7784 
173 1 5.04192 -13.3127 22.6239 
209 2 5.14735 -10.4674 23.0469 
63 1 69.0355 56.9962 20.7918 
83 2 68.2118 56.611 18.7737 
197 2 6.44106 -10.9635 23.3868 
174 1 4.44804 -13.2724 23.8893 
810 2 2.12721 -8.11082 24.3151 
200 2 4.30165 -12.2713 24.4204 
685 2 2.70161 -10.2365 23.9023 
654 1 2.26307 -14.1876 20.3587 
152 3 69.507 56.776 24.3729 
149 1 70.5718 57.6428 24.7504 
70 2 67.7309 57.8393 19.3381 
867 2 7.89282 -7.54536 20.3302 
170 2 71.5733 57.3291 24.9277 
863 1 8.46921 -7.51091 19.3629 
286 2 7.95217 -13.9596 23.5137 
175 1 4.08466 -14.4748 24.4903 
201 2 3.74241 -14.4224 25.5198 
669 2 3.55751 -14.9256 18.7507 
178 1 5.12007 -14.5607 22.0013 
203 2 5.51338 -14.4497 21.0726 
295 2 8.79113 -12.2739 25.6214 
283 2 7.28629 -12.519 24.7886 
85 2 70.9186 57.8261 20.1492 
86 2 69.6953 57.8603 18.8878 
260 1 7.91821 -14.9357 23.9783 
866 2 9.46373 -7.87212 19.6011 
586 2 -15.1541 -10.1762 19.9983 
602 2 -16.5329 -7.73151 20.7211 
571 1 -15.2689 -11.2869 22.8029 
570 1 -15.9933 -11.6342 23.9281 
574 3 -15.3125 -9.99856 22.2224 
580 1 -15.4835 -7.33401 20.6023 
593 2 -16.744 -10.9151 24.3621 
569 1 -15.8145 -12.7864 24.6432 
592 2 -16.5594 -12.8976 25.5216 
65 3 57.7969 63.3513 17.885 
628 2 -8.32653 -6.37489 24.6252 
361 1 57.672 58.2097 18.9704 
821 4 -9.45493 -6.8383 17.5679 
826 2 -10.17 -4.50416 17.8198 
842 2 -10.7044 -6.5517 19.9952 
825 2 -8.45298 -3.75411 18.0377 
467 2 53.9563 58.4016 22.4604 
455 2 52.5192 59.1263 22.1016 
242 2 51.5924 59.5925 18.5109 
234 1 52.5773 59.4238 18.0698 
438 3 53.1424 59.7951 24.1508 
446 1 53.3882 59.3339 22.7544 
255 2 53.0821 60.1556 18.7685 
748 2 55.7889 60.0021 21.5924 
452 3 55.0601 60.1788 21.0064 
447 1 54.1089 60.5529 22.1012 
448 1 52.9118 61.3521 21.517 
468 2 54.514 61.0892 22.987 
843 2 -8.45078 -5.34343 19.6326 
726 1 55.2073 64.2876 19.7453 
723 1 53.8008 63.7743 21.747 
724 1 54.7279 64.6807 21.1675 
535 1 -7.62245 62.3483 -41.7323 
543 2 -8.5527 62.8337 -42.1251 
556 2 -7.99513 61.3206 -41.7924 
722 1 53.4849 64.0963 23.1255 
727 4 53.2728 62.7293 20.967 
731 2 55.8497 64.9663 19.2121 
747 2 53.9716 62.4894 20.2917 
456 2 52.1263 61.4749 22.2974 
469 2 52.3346 60.6985 20.8147 
721 1 54.2474 65.0128 23.8172 
250 2 51.9532 61.9136 17.9237 
735 2 51.5504 63.1411 23.2096 
733 2 55.8281 63.3352 19.9548 
729 1 52.4604 63.3293 23.8734 
732 2 54.3768 63.9811 19.0093 
725 1 55.4819 65.7075 21.7628 
551 2 -9.45166 61.6804 -40.3167 
254 2 57.6896 65.1349 20.6663 
720 1 55.2102 65.809 23.1338 
624 3 -6.97182 -6.26568 22.7758 
902 2 57.6908 61.576 20.5496 
741 2 54.0311 65.2294 24.8853 
734 2 52.931 62.3555 24.1658 
431 1 52.0868 59.0432 24.7556 
730 1 51.9176 63.908 25.2302 
736 2 51.3078 64.8248 25.1662 
233 1 57.8283 66.1635 20.923 
366 3 57.467 59.6537 19.2356 
539 3 -7.07486 62.516 -44.2998 
746 2 57.6286 65.5217 24.5128 
740 1 56.9074 66.1055 24.9808 
531 3 -7.10753 62.8566 -40.4555 
841 2 -6.91667 -1.67434 18.8026 
883 4 64.3547 58.2558 23.5441 
68 2 60.2147 61.9303 18.2995 
252 2 58.3052 65.5746 18.2848 
80 2 58.7778 61.1808 18.0384 
45 1 60.79 59.0835 17.793 
619 1 -6.14115 -6.4651 23.9413 
640 2 -5.96699 -5.72977 24.7742 
398 1 -0.826935 -3.96021 17.955 
536 1 -6.58934 62.5082 -42.8935 
421 2 -1.79589 -3.90158 18.4281 
430 2 -0.468013 -6.47814 21.4691 
71 2 60.4888 59.5932 18.7003 
408 1 0.213338 -6.44175 22.3379 
399 1 0.282863 -4.16797 18.7985 
903 2 59.6575 63.1985 20.0212 
557 2 -6.03849 63.3738 -42.6006 
558 2 -5.63793 60.4889 -43.2468 
886 2 62.8424 59.7732 21.0408 
537 1 -5.56178 61.3927 -42.5349 
151 3 60.5124 63.3999 19.5303 
559 2 -5.78881 60.9342 -41.5477 
882 4 60.9604 61.7274 22.4836 
168 2 61.5699 61.3667 20.4458 
167 2 61.1732 64.0719 21.5212 
154 2 63.2823 63.566 19.3844 
146 1 61.4885 63.5452 20.6639 
145 1 62.8861 64.0978 20.2765 
147 1 61.7082 62.1093 21.2522 
155 2 62.7745 61.9912 21.4647 
130 1 65.1376 64.5833 21.2705 
137 3 63.7331 64.3638 21.4388 
878 1 61.7413 60.9875 23.4758 
881 1 62.2349 59.2173 21.7953 
879 1 62.4969 59.8683 23.1818 
887 2 61.2057 59.207 21.4607 
880 1 63.4696 59.2394 24.0494 
402 3 0.124036 -4.32826 20.1649 
428 2 0.219929 -4.37125 22.799 
166 2 62.6489 64.9449 19.6761 
877 1 61.8909 61.5011 24.7604 
875 1 63.4098 59.6917 25.3703 
157 2 65.3824 65.7177 23.1046 
750 2 60.1247 65.2114 20.214 
160 2 65.2307 63.6684 19.3705 
407 1 1.01501 -5.08549 22.4237 
131 1 65.8949 65.231 22.2497 
884 1 61.0966 62.7245 25.2044 
890 2 60.1353 62.7279 24.6144 
135 1 65.8318 64.0817 20.1767 
893 2 62.2332 64.0751 23.8226 
891 2 62.8809 64.0222 25.4316 
885 1 61.9231 64.0639 24.8666 
241 2 58.2565 66.0958 21.9145 
892 2 61.4419 65.0148 25.1247 
901 2 66.23 59.9185 25.5487 
237 3 60.2077 66.185 20.1734 
400 1 1.50531 -4.21809 18.0348 
406 1 1.32444 -4.67171 20.9563 
414 2 2.08133 -3.86138 21.0744 
874 2 4.73941 -6.62815 22.114 
66 3 68.8959 58.2598 21.6308 
148 1 70.4923 59.1663 24.6874 
156 2 69.4113 59.5186 24.7669 
427 2 2.05904 -5.4253 20.6432 
144 3 71.3553 59.6954 23.5473 
132 1 67.2777 65.2043 22.2468 
422 2 2.44989 -4.46752 18.5394 
134 1 67.2172 64.1156 20.0391 
159 2 67.7242 63.6748 19.179 
905 2 67.6077 59.1067 22.972 
161 2 69.7667 64.5543 19.8531 
162 2 71.9143 63.1859 20.6076 
158 2 67.7546 65.7437 23.0124 
133 1 67.9495 64.6158 21.1385 
410 3 2.22159 -5.0696 23.3178 
163 2 72.5899 61.1775 21.7365 
139 1 71.1808 62.7129 21.2988 
140 1 71.6347 61.5739 21.9436 
138 1 69.8855 63.1836 21.6038 
141 1 70.9416 60.9196 22.9965 
142 1 69.736 61.5255 23.3714 
143 1 69.1955 62.5503 22.6653 
136 1 69.4629 64.521 20.9551 
153 2 69.9009 65.4 21.4357 
864 1 8.73894 -5.94981 19.0078 
870 2 7.82098 -5.48768 18.7331 
165 2 68.2182 62.9233 22.976 
164 2 69.0487 61.0708 24.1332 
869 2 9.09825 -5.39554 19.9231 
868 2 9.38662 -5.79408 18.1579 
601 2 -15.3964 -6.34438 21.1846 
728 4 56.4192 66.6511 21.1409 
749 2 56.1413 66.8299 20.1615 
739 1 55.9529 66.8664 23.9743 
246 2 54.4726 68.1804 17.9862 
223 3 57.0022 67.4196 18.2756 
743 2 56.5854 67.622 23.3619 
742 2 55.2956 67.4334 24.591 
240 2 59.1403 66.873 17.8577 
231 1 58.2594 66.6582 18.5121 
253 2 58.8046 67.8952 20.0651 
232 1 58.8332 66.8173 19.9437 
644 2 -3.84645 -25.9316 20.8827 
700 2 -1.79033 -23.8695 22.3217 
718 2 -3.09913 -24.261 18.6039 
719 2 -4.82765 -24.5128 21.0268 
697 4 -3.16678 -24.187 19.6979 
623 1 -4.17875 -25.0694 20.3307 
645 2 -4.93584 -25.5364 19.6416 
695 1 -2.64021 -23.2824 22.4786 
701 2 -3.46156 -24.0457 22.7182 
491 1 -7.06251 -15.2966 18.2558 
589 2 -12.3819 -16.2985 24.1064 
590 2 -10.0737 -16.1306 24.8941 
385 2 51.5499 48.5955 20.2324 
367 3 51.7199 49.7811 18.3419 
371 2 53.1674 47.491 18.7406 
364 1 52.2037 49.0492 19.4755 
384 2 54.143 48.839 18.7668 
363 1 53.5188 48.2491 19.3966 
359 3 54.0463 47.8896 20.7344 
356 1 54.9779 48.792 21.3085 
355 1 55.798 48.4259 22.3882 
378 2 55.6815 47.3904 22.8603 
354 1 56.8041 49.1916 22.9759 
377 2 57.471 48.8222 23.7535 
591 2 -14.814 -15.8895 24.4702 
564 1 -12.1506 -15.6837 24.9869 
565 1 -10.8405 -15.5038 25.4077 
629 2 -7.08249 -18.0961 21.1818 
702 2 -2.52988 -22.6902 23.4374 
499 2 -6.70487 -15.8857 19.0991 
683 2 -2.28478 -17.502 17.6966 
647 1 -0.965335 -15.1275 17.5209 
636 2 -3.70167 -15.1837 20.3911 
613 1 -3.59463 -15.3135 21.4993 
616 1 -3.54126 -15.8217 24.1796 
638 2 -3.46353 -15.9411 25.2686 
281 3 0.0955315 -23.0043 23.837 
714 2 -5.53389 -22.2346 17.972 
708 1 -3.34124 -22.3154 17.5829 
614 1 -4.2739 -16.4296 21.9984 
206 2 -0.716343 -16.601 24.3014 
643 2 -5.08192 -19.3764 19.8536 
625 3 -5.79279 -20.6331 21.3949 
622 1 -5.59794 -19.5207 20.8485 
615 1 -4.2296 -16.709 23.3796 
694 1 -3.06023 -22.7926 20.0486 
689 1 -2.99109 -21.82 18.9915 
621 1 -6.01256 -18.1865 21.4846 
617 3 -4.97993 -17.1792 21.0319 
637 2 -4.68375 -17.6407 23.7871 
642 2 -6.18991 -18.3714 22.5818 
691 1 -2.05177 -20.1377 20.5478 
692 1 -2.11006 -21.0508 21.6123 
693 1 -2.79119 -22.2584 21.2991 
43 2 -3.63757 -20.0783 23.479 
42 2 -2.45636 -18.8196 23.2225 
696 4 -1.7257 -20.7797 23.0268 
21 1 -2.62128 -19.7227 23.66 
279 1 -0.233225 -20.575 23.1783 
703 2 -1.03794 -18.6128 21.7295 
690 1 -2.49154 -20.514 19.2073 
704 2 -1.80788 -17.9288 20.3078 
710 2 -2.43442 -19.7697 18.4613 
301 2 0.116954 -19.7762 22.5623 
698 1 -1.2999 -18.8183 20.6843 
300 2 -0.0434945 -20.1864 24.2214 
40 2 -2.3087 -21.6624 25.0441 
183 1 0.0869869 -16.7044 24.9867 
278 1 0.603693 -21.8884 23.0313 
299 2 0.627284 -22.2573 21.9941 
699 1 0.0478523 -18.9791 19.8645 
717 2 0.259785 -22.5682 24.7276 
705 2 0.632155 -19.8988 20.1783 
707 2 -0.0810477 -18.9851 18.7535 
706 2 0.798981 -18.2169 19.9454 
20 1 -2.44061 -19.4324 25.2137 
41 2 -1.47788 -18.9501 25.378 
649 1 1.38128 -15.1529 18.1231 
652 1 2.53107 -15.0889 19.1452 
182 1 1.30619 -16.8346 24.3908 
205 2 1.44038 -16.8659 23.2789 
681 2 1.29754 -15.7847 21.4248 
277 1 2.02546 -21.4427 23.4206 
287 2 8.02917 -15.8639 22.0427 
176 1 4.19845 -15.6832 23.8026 
177 1 4.63625 -15.7345 22.4593 
677 2 2.55383 -16.1049 19.5543 
293 2 3.6163 -18.56 20.8098 
202 2 4.74356 -16.7201 21.941 
273 3 2.54036 -20.5208 22.3326 
294 2 5.89312 -17.8147 20.7901 
271 1 4.25975 -19.0157 21.5548 
204 2 3.86025 -17.7086 23.805 
272 1 5.57013 -18.6013 21.546 
270 1 3.82214 -19.9577 22.5033 
290 2 8.2966 -18.102 21.6191 
267 1 6.53172 -18.9882 22.5406 
261 1 8.01231 -16.0143 23.1243 
269 1 4.77265 -20.3917 23.4498 
179 1 3.89087 -16.9316 24.5601 
265 1 7.93199 -18.4906 22.6236 
268 1 6.07284 -19.9587 23.457 
262 1 8.01345 -17.3323 23.6311 
282 2 8.6464 -19.301 22.8397 
181 1 2.50322 -16.8865 25.1743 
196 2 4.74595 -17.1338 25.2487 
285 2 2.02363 -21.1485 24.4643 
298 2 2.55842 -22.3939 23.5793 
292 2 4.43745 -21.0621 24.2417 
291 2 6.6887 -20.3847 24.249 
263 1 8.01597 -17.5503 25.0386 
259 1 7.86583 -15.1627 25.3646 
288 2 8.10165 -18.5765 25.4771 
562 1 -12.7481 -14.0924 26.7262 
588 2 -13.506 -13.4942 27.2397 
325 2 53.3751 56.4925 -38.88 
308 1 54.0875 55.7141 -38.8977 
333 2 53.8167 55.0153 -38.0574 
305 1 55.433 56.2459 -38.5913 
532 1 -7.5049 56.4342 -32.2208 
524 3 -8.62123 56.5331 -33.217 
304 1 56.5886 55.4812 -38.299 
759 4 -9.11286 -11.4065 33.1588 
445 3 52.2484 54.3568 31.052 
449 1 52.47 55.1934 32.2087 
763 2 -8.60983 -10.7895 30.7602 
330 2 56.4527 54.3778 -38.3438 
442 1 51.4301 54.8912 30.0071 
306 1 55.5637 57.6529 -38.416 
756 1 -8.47925 -12.6654 32.6925 
443 1 50.6238 56.018 30.2186 
764 2 -9.41179 -11.8865 29.8384 
757 1 -8.40305 -11.7826 30.2969 
755 1 -8.10453 -12.8756 31.3451 
751 1 -8.47687 -13.7883 33.5279 
470 2 52.8795 56.1991 32.0725 
544 2 -10.6225 56.922 -34.9013 
587 2 -11.2451 -13.3691 28.0638 
441 1 51.3751 54.3138 28.7318 
451 1 54.666 54.1596 32.4401 
561 1 -11.4825 -14.0571 27.1883 
464 2 51.8883 53.3769 28.5483 
762 2 -7.68203 -11.5232 29.5314 
517 1 -9.00971 57.7481 -33.7969 
473 2 54.455 53.3332 31.7261 
518 1 -10.011 57.8185 -34.7577 
472 2 54.9423 55.0638 31.7958 
465 2 50.6724 56.5454 31.1607 
303 1 57.7336 56.0384 -37.7137 
302 1 57.812 57.426 -37.462 
533 1 -7.04693 55.0083 -31.8417 
440 1 50.6063 54.8926 27.7648 
463 2 50.4614 54.3437 26.8157 
554 2 -7.20552 54.3745 -32.7331 
560 1 -10.4354 -14.7778 26.5596 
567 3 -9.14028 -14.4862 26.9969 
778 2 -7.94479 -13.6153 28.6881 
754 1 -7.50753 -14.0145 30.7936 
758 4 -7.27191 -14.0897 29.3875 
450 1 53.3585 54.48 33.2561 
752 1 -7.92771 -14.9711 33.0594 
457 2 51.6195 55.6232 32.7532 
541 2 -7.56971 57.0011 -31.2708 
471 2 52.8027 53.5832 33.4235 
799 2 -4.15016 -8.04942 27.0118 
553 2 -6.58184 57.0107 -32.3347 
597 2 -6.42669 -14.0201 27.0263 
631 2 -4.80226 -13.1965 25.7564 
630 2 -6.20129 -11.0977 25.6758 
809 2 0.308283 -8.84783 27.3938 
329 2 58.6645 55.5496 -37.2426 
798 2 -3.51058 -7.42436 28.5953 
791 1 -1.95963 -8.48853 27.3891 
793 2 0.701855 -13.3562 28.8166 
788 1 0.538106 -12.6477 28.0475 
786 1 -0.840626 -11.9357 28.1741 
812 2 -1.01302 -14.3517 28.549 
787 1 -1.93501 -12.6511 28.6263 
790 4 -1.83924 -14.0263 29.0917 
782 1 -3.07438 -11.7804 28.8374 
193 1 -2.88875 -14.9949 28.6125 
214 2 -3.89052 -14.7368 28.914 
801 1 -4.37626 -12.1759 29.5268 
804 2 -4.90688 -12.9899 28.9112 
805 2 -5.1249 -11.351 29.4929 
785 1 -0.703175 -10.5832 27.7746 
783 1 -3.13004 -10.4403 28.3862 
784 1 -1.98888 -9.92011 27.8369 
802 1 -4.06974 -12.6849 30.9793 
806 2 -3.32519 -13.4665 31.0826 
808 2 -3.64107 -11.8899 31.5242 
807 2 -4.94715 -13.0376 31.5515 
803 2 -4.03152 -9.8097 28.4053 
919 2 -3.5035 55.3163 96.5142 
917 2 -4.45375 56.7453 96.5429 
912 1 -3.50184 56.3486 96.9355 
918 2 -3.54175 56.1745 98.0795 
910 1 -2.34108 57.2261 96.4724 
911 1 -1.14049 56.534 96.1247 
8 3 -1.53271 -13.9641 32.4362 
25 2 -0.237687 -12.4855 31.5183 
914 4 -1.0495 55.0933 96.2644 
789 4 0.49776 -9.91964 27.4234 
795 2 0.56798 -13.2582 27.1391 
16 1 -0.651723 -12.8354 32.499 
37 2 0.301532 -12.9864 32.9306 
17 1 -1.27971 -11.6092 33.2393 
935 2 -0.492544 54.7392 95.5027 
18 1 -0.540838 -10.3716 32.6474 
906 1 -0.0649577 57.4419 95.8397 
215 2 -2.91236 -14.882 27.5151 
792 1 -3.27822 -7.65806 27.5094 
796 2 -1.66739 -8.49321 26.3057 
797 2 -1.06942 -8.00332 27.9343 
31 2 0.627045 -14.3992 30.8936 
327 2 60.2457 57.7725 -34.8995 
309 3 58.8894 57.9557 -36.7441 
39 2 -0.544404 -9.53105 33.409 
26 2 0.561918 -10.5292 32.6375 
125 2 -4.57427 -6.9454 33.3527 
38 2 -2.29268 -11.6104 32.8338 
688 2 1.20403 -11.4501 26.087 
666 1 1.15688 -10.3525 26.1149 
897 2 64.5055 58.1239 26.3207 
150 1 69.6858 56.8467 25.7899 
928 2 1.52578 57.129 94.2665 
687 2 2.24934 -10.2228 26.1934 
794 2 1.36593 -11.9052 28.041 
925 1 1.29194 56.9824 95.3512 
929 2 1.35168 55.9099 95.4492 
274 1 7.75872 -12.7215 25.7744 
296 2 7.45769 -12.0917 27.7897 
275 1 7.08491 -11.8503 26.8163 
266 3 7.78113 -14.1245 26.3093 
280 3 6.28469 -10.667 26.5341 
172 2 70.3649 56.174 26.3891 
171 2 69.1977 57.4875 26.4901 
284 2 5.01171 -12.5267 26.1312 
276 1 5.52513 -11.8203 26.8823 
120 2 4.62412 -9.96194 31.6866 
98 1 3.75205 -11.8516 32.3777 
97 1 4.00038 -10.4761 32.4564 
101 3 4.26797 -12.614 31.2963 
127 2 4.83329 -13.9187 29.3143 
105 1 3.74337 -14.0048 31.1615 
113 2 2.71775 -13.9556 31.0431 
96 1 3.53189 -9.75297 33.5216 
99 1 2.99472 -12.4668 33.3959 
121 2 2.81006 -13.5371 33.2812 
106 1 4.33928 -14.7039 29.9432 
126 2 3.71782 -14.8204 32.0062 
119 2 3.8562 -8.73579 33.676 
297 2 5.14859 -11.9948 27.8532 
930 2 3.4327 57.3912 95.9582 
926 1 2.38191 57.7701 96.1605 
931 2 2.14353 57.6135 97.2369 
444 1 49.805 56.5882 29.2809 
434 1 49.9962 57.658 26.0607 
439 1 49.8225 56.0599 27.9684 
466 2 49.2084 57.4507 29.5182 
437 1 49.0813 56.6835 26.797 
454 2 48.7438 55.894 26.0919 
462 2 48.0864 57.0532 27.1257 
744 2 56.3897 65.4379 25.6625 
738 2 51.2537 63.1942 25.7388 
737 2 52.7219 64.0485 25.9406 
331 2 54.7801 58.3203 -38.7802 
307 1 56.6808 58.1768 -37.8543 
529 1 -9.0369 61.849 -39.3175 
528 1 -7.77783 62.4305 -39.2772 
547 2 -7.70442 58.9907 -32.6135 
332 2 56.7454 59.2677 -37.8143 
522 1 -8.39842 58.9759 -33.4291 
519 1 -10.4485 58.9679 -35.3471 
545 2 -11.2413 59.0184 -36.0755 
521 1 -8.79442 60.0898 -34.0879 
432 1 51.501 59.5478 25.9002 
520 1 -9.82499 60.2065 -35.0647 
546 2 -8.23951 61.0335 -33.8886 
552 2 -10.776 60.9704 -38.3049 
530 1 -9.76897 61.4406 -38.2347 
548 2 -11.1765 61.5514 -36.1051 
523 1 -10.1362 61.5115 -35.7851 
540 2 -9.92777 62.3409 -35.0983 
525 1 -9.24901 61.7906 -36.9733 
526 1 -7.9861 62.4705 -36.8477 
458 2 51.968 60.4592 26.261 
527 1 -7.28489 62.6754 -37.9834 
549 2 -7.62438 62.8367 -35.9287 
433 1 50.459 58.9131 26.5572 
459 2 50.1028 59.3206 27.5198 
326 2 58.1936 59.9779 -36.3885 
876 1 62.5142 60.7116 25.7649 
909 1 -2.57707 58.6167 96.4334 
338 2 59.2597 59.8967 -37.6791 
900 2 65.4703 61.2087 26.3799 
340 2 59.0952 58.7885 -34.1264 
550 2 -6.31533 63.1929 -37.9041 
894 1 64.3365 59.1999 26.4757 
889 2 60.7124 62.7132 26.2588 
800 2 -3.19382 -6.62117 27.1147 
896 2 62.5195 61.0799 26.8137 
104 1 -4.56346 -5.94309 32.9521 
319 1 60.1166 58.8058 -34.5764 
913 4 -3.97634 59.165 96.581 
317 1 59.0575 59.4516 -36.6768 
933 2 -5.03311 61.3168 95.8838 
323 3 59.7795 61.3292 -35.1059 
318 1 60.1291 59.9127 -35.6844 
898 2 63.928 59.2222 27.4844 
339 2 61.0372 59.7326 -36.2224 
916 1 -0.910989 61.6385 94.6785 
908 1 -1.50934 59.4645 96.0156 
915 1 -1.70166 61.0025 95.8594 
921 2 -2.76538 61.2741 95.797 
924 2 -1.24145 62.6135 94.3025 
920 2 -1.28961 61.5212 96.764 
907 1 -0.321912 58.8056 95.6944 
934 2 -4.51169 61.3058 97.6714 
108 3 -4.37217 -3.65095 33.6479 
923 2 0.166896 61.7553 95.049 
927 2 0.524317 59.3841 95.2408 
922 2 -0.928619 61.1195 93.7131 
111 2 -2.02418 -5.3088 33.3228 
895 1 65.6098 60.074 26.4434 
112 2 -5.61301 -5.9061 32.892 
899 2 66.2223 59.8074 27.3183 
932 2 2.39919 58.7922 95.8835 
169 2 70.7575 59.5849 25.6612 
745 2 57.4969 66.7876 25.64 
753 1 -7.3499 -15.0807 31.7568 
575 1 -8.02567 -15.2068 26.2668 
596 2 -8.14905 -16.293 25.9653 
598 2 -7.69061 -16.105 28.8077 
766 2 -7.35591 -17.0487 31.031 
577 1 -7.00635 -15.3179 28.5719 
576 1 -6.73138 -15.0329 27.0498 
768 2 -6.26863 -17.376 33.396 
1 1 -0.940897 -15.2604 32.1425 
6 1 0.180084 -15.337 31.3646 
760 1 -6.62132 -16.3134 31.3781 
23 3 -3.6123 -18.8667 25.9272 
581 3 -5.64566 -15.9165 26.4662 
2 1 -1.51523 -16.422 32.6786 
716 2 -3.09451 -18.374 26.6131 
585 2 -6.09834 -15.7 29.0687 
761 1 -5.76245 -16.8399 32.5783 
767 2 -5.02846 -17.5832 32.2828 
19 1 -2.16508 -20.8339 25.7929 
27 2 -2.98548 -21.0575 26.468 
779 2 -5.30116 -16.535 27.1552 
213 2 -2.35491 -16.2957 30.2966 
15 3 -0.77277 -20.8371 26.3631 
184 1 -0.0989632 -16.7103 26.4061 
187 3 -1.31372 -16.5933 27.0454 
192 1 -2.6519 -16.4181 29.2036 
765 2 -5.87104 -16.0693 30.539 
199 2 -0.521011 -16.3169 29.061 
4 1 0.173834 -17.727 31.6011 
191 1 -1.34965 -16.8691 28.5149 
195 3 -3.80471 -17.2862 28.9041 
811 2 -3.67168 -17.6542 27.9828 
207 2 1.0704 -17.1243 28.1989 
212 2 -1.06295 -17.8804 28.7963 
14 1 -1.0189 -19.8036 29.9357 
35 2 -2.53157 -20.1255 28.4344 
13 1 -1.47035 -20.1567 28.658 
12 1 -0.543996 -20.5419 27.7048 
36 2 -1.62949 -19.4742 30.7997 
9 1 0.36259 -19.6456 30.1028 
7 1 0.832043 -19.1273 31.3855 
5 1 0.74555 -16.5807 31.0411 
24 2 0.670717 -19.8086 32.2541 
185 1 1.11025 -16.9434 27.1309 
3 1 -0.982775 -17.6434 32.4175 
29 2 -1.25267 -18.5322 32.9983 
769 2 -5.22772 -16.0256 33.0767 
28 2 -2.40191 -16.3651 33.3647 
11 1 0.862791 -20.5579 28.0313 
107 1 5.02113 -16.155 29.9463 
129 2 5.97893 -16.1453 29.3888 
128 2 5.1892 -16.5749 30.9531 
30 2 1.66189 -16.6442 30.5129 
10 1 1.35395 -20.1105 29.1775 
32 2 1.98184 -18.9978 31.3387 
34 2 1.5387 -20.9371 27.201 
33 2 2.43364 -20.0756 29.4692 
109 3 3.7289 -15.9169 29.4113 
186 1 2.367 -16.9139 26.5757 
208 2 3.23415 -17.0954 27.2153 
264 1 7.99359 -16.4772 25.8524 
289 2 7.9614 -16.5772 26.9999 
583 2 -15.3286 -15.1469 25.8545 
780 2 -10.6419 -9.02704 34.0681 
534 1 -8.28803 54.5311 -31.0331 
542 2 -8.90253 55.429 -30.8003 
453 3 53.6773 55.3501 34.4497 
555 2 -8.14288 54.1994 -29.956 
770 1 -8.9729 -13.7856 34.9223 
774 2 -9.66494 -12.9305 35.0136 
776 2 -8.05072 -13.7212 36.9619 
771 1 -7.7631 -13.5518 35.8936 
773 2 -9.45666 -14.7017 35.3574 
775 2 -6.95742 -14.2961 35.7466 
777 2 -7.32197 -12.5999 35.8485 
781 2 -5.63256 -11.016 34.0304 
22 3 -1.31035 -11.6998 34.728 
538 3 -5.76121 54.9175 -31.1399 
936 2 -1.76367 52.4287 99.8607 
114 2 -2.05008 -8.59545 36.6638 
88 1 -1.17511 -8.32576 36.1187 
89 1 -0.0435578 -9.06034 36.2937 
115 2 -0.145853 -9.94276 36.9248 
87 1 -1.28857 -7.17329 35.3002 
91 1 1.09768 -7.53435 34.795 
90 1 1.1541 -8.68089 35.6437 
92 1 -0.0770967 -6.88247 34.6292 
95 1 2.79285 -10.3348 34.5542 
100 1 2.40829 -11.7048 34.4151 
122 2 1.84166 -12.1664 35.3041 
93 1 2.36269 -9.58808 35.8252 
118 2 3.17071 -8.93709 36.0949 
110 2 2.27996 -10.167 36.6999 
116 2 1.93071 -7.16528 34.2063 
103 1 -4.07593 -5.04873 34.0613 
117 2 -0.0691809 -6.00747 33.916 
94 3 -2.53049 -6.56072 35.1782 
102 1 -2.55872 -5.35709 34.2924 
123 2 -2.12562 -4.36166 34.6136 
124 2 -4.52882 -5.32505 35.0475 
772 2 -7.95769 -15.8174 33.7526 
