LAMMPS (09 Jan 2020)
package omp 0
WARNING: OpenMP support not enabled during compilation; using 1 thread only. (../fix_omp.cpp:125)
units			real
atom_style		charge
read_data input_files/d0_lmps.dat
  orthogonal box = (-15 -15 -15) to (50 50 50)
  1 by 1 by 1 MPI processor grid
  reading atoms ...
  936 atoms
  read_data CPU = 0.00061202 secs
reset_timestep		0

pair_style              reax/c lmp_control lgvdw yes
pair_coeff              * * ffield C H O N

neighbor		2.5 bin
neigh_modify		delay 0 every 5 check no

fix			qeq all qeq/reax 1 0.0 10.0 1e-6 reax/c
fix			bonds all reax/c/bonds 500 bonds.reaxc
fix			npt all npt temp 300 300 100 iso 1.0 1.0 2000
fix 1 all reax/c/species 10 10 100 species.out cutoff 1 4 0.25
WARNING: Resetting reneighboring criteria for fix reax/c/species (../fix_reaxc_species.cpp:97)


thermo			100
thermo_style            custom step temp pe etotal press vol density
thermo_modify           flush yes

timestep		0.25

dump			1 all custom 1000 dump/dump.reax.npt.* id type xu yu zu
restart			500 restart.npt300 restart.npt300
run 1000000
Last active /omp style is pair_style reax/c/omp
Neighbor list info ...
  update every 100 steps, delay 0 steps, check no
  max neighbors/atom: 2000, page size: 100000
  master list distance cutoff = 12.5
  ghost atom cutoff = 12.5
  binsize = 6.25, bins = 11 11 11
  2 neighbor lists, perpetual/occasional/extra = 2 0 0
  (1) pair reax/c/omp, perpetual
      attributes: half, newton off, ghost, omp
      pair build: half/bin/newtoff/ghost/omp
      stencil: half/ghost/bin/3d/newtoff
      bin: standard
  (2) fix qeq/reax/omp, perpetual, copy from (1)
      attributes: half, newton off, ghost
      pair build: copy
      stencil: none
      bin: none
Per MPI rank memory allocation (min/avg/max) = 34.53 | 34.53 | 34.53 Mbytes
Step Temp PotEng TotEng Press Volume Density 
       0            0   -111109.29   -111109.29    207.54027       274625  0.038816842 
     100    95.961084   -111367.05    -111099.6    128.65638    274617.87  0.038817851 
     200    110.60127   -111391.47   -111083.22   -97.062878    274624.24   0.03881695 
     300    113.68548   -111379.85      -111063   -52.517002    274627.43  0.038816498 
     400    119.56934   -111371.75   -111038.51   -103.17827    274607.74  0.038819282 
     500    134.87959   -111386.41    -111010.5   -168.57802    274558.11  0.038826299 
     600    140.05438   -111369.83   -110979.49    55.743897    274447.82  0.038841901 
     700    138.74232    -111334.4   -110947.72   -44.328252    274262.96  0.038868082 
     800    152.58131   -111338.62   -110913.37    65.292814    274043.05  0.038899273 
     900    160.68497   -111323.27   -110875.43    83.047094    273853.95  0.038926133 
    1000    162.05316   -111288.73   -110837.08    30.806891    273671.32   0.03895211 
    1100    175.55612   -111286.23   -110796.95   -84.274317    273446.43  0.038984145 
    1200    183.08043   -111264.26      -110754   -73.737613    273189.56  0.039020801 
    1300    187.30689   -111232.48   -110710.45   -70.587266    272913.64  0.039060251 
    1400    198.50024    -111219.2   -110665.96   -111.11221    272605.32  0.039104429 
    1500    215.23675    -111218.8   -110618.92    352.36041    272287.82  0.039150026 
    1600      212.047   -111163.15   -110572.17     218.9054    272036.46  0.039186201 
    1700    230.23828   -111165.09    -110523.4    28.750979    271871.77  0.039209938 
    1800    244.48471   -111155.89   -110474.49   -9.9619976    271773.62    0.0392241 
    1900    257.38967    -111142.2   -110424.84   -94.851608     271714.5  0.039232634 
    2000    263.45549    -111111.6   -110377.33   -45.784762    271654.95  0.039241234 
    2100    280.90115    -111113.8   -110330.91    188.27736    271624.52   0.03924563 
    2200    271.87064   -111044.75   -110287.03    112.09268    271645.43  0.039242609 
    2300    281.27602   -111029.11   -110245.18    145.17006    271686.54  0.039236671 
    2400    296.02567   -111028.31   -110203.27    123.64391    271731.22   0.03923022 
    2500    303.69015   -111011.73   -110165.33    108.68111    271760.23  0.039226032 
    2600    314.22535   -111007.51   -110131.74    53.557317    271832.29  0.039215633 
    2700    317.87374   -110990.55   -110104.61   -110.22869    271983.99  0.039193761 
    2800    312.45766    -110954.3   -110083.46    306.00573    272211.92  0.039160943 
    2900    305.80406   -110921.09   -110068.79   -86.656915    272524.34  0.039116049 
    3000    313.93464   -110932.45    -110057.5   -119.87925    272849.65  0.039069412 
    3100     318.4644   -110939.76   -110052.18    98.462011    273097.48  0.039033958 
    3200     313.1686   -110924.98   -110052.16    82.351084    273292.57  0.039006093 
    3300    325.92808    -110967.5   -110059.12    63.367955    273492.17  0.038977625 
    3400     301.6621   -110912.54   -110071.79    53.067526    273687.54  0.038949802 
    3500     301.0315   -110924.57   -110085.58    178.71181    273878.83  0.038922597 
    3600    300.67218   -110936.13   -110098.14   -5.7906885    274090.91  0.038892481 
    3700    303.49968   -110956.87      -110111   -114.32527    274322.74  0.038859612 
    3800     291.3412   -110935.14   -110123.15    67.412505    274573.78  0.038824083 
    3900    285.95278   -110929.47    -110132.5   -67.750376    274858.55  0.038783859 
    4000     290.8167   -110947.32   -110136.79    80.636577    275169.81  0.038739988 
    4100    282.50705    -110923.9   -110136.54    -297.6524     275481.7  0.038696129 
    4200    289.57568   -110939.49   -110132.43   -3.4478507    275752.94  0.038658066 
    4300    297.92405    -110956.5   -110126.17    9.6695479     275985.9  0.038625434 
    4400    305.57437   -110970.28   -110118.63   -71.250301    276250.54  0.038588432 
    4500    293.96595   -110930.07   -110110.77   -215.71459    276547.24  0.038547033 
    4600    303.96175   -110949.27   -110102.11    202.21073    276819.84  0.038509073 
    4700    311.82857    -110962.7   -110093.62   -168.30582    277086.15  0.038472061 
    4800    304.48401   -110936.54   -110087.93   -264.28923     277354.8  0.038434796 
    4900    286.37399   -110880.45   -110082.31    -266.6771    277583.43  0.038403141 
    5000     303.4272   -110920.46   -110074.79   -239.09081     277750.6  0.038380026 
    5100    304.27531   -110915.59   -110067.56   -53.817223    277921.84  0.038356379 
    5200    305.92456   -110913.35   -110060.72   -14.615002    278175.61  0.038321388 
    5300    305.29191   -110906.06    -110055.2    442.67634    278533.66  0.038272127 
    5400    310.83167   -110918.57   -110052.27    60.630146    278912.16  0.038220189 
    5500    298.42842    -110884.8   -110053.06    96.403994    279258.89  0.038172734 
    5600    308.33184   -110915.02   -110055.68    176.70147    279586.45  0.038128011 
    5700    316.01492    -110941.5   -110060.75   -17.138473    279944.76   0.03807921 
    5800    317.03936   -110953.38   -110069.78    443.45611    280354.65  0.038023537 
    5900     304.3843   -110931.32   -110082.98    -96.64865    280815.73  0.037961105 
    6000    304.18868    -110946.2   -110098.41   -191.02463    281218.86  0.037906687 
    6100    289.15805   -110918.89   -110112.99     64.00664    281582.55  0.037857727 
    6200    299.74224   -110959.68   -110124.28   -249.44943    281980.41  0.037804312 
    6300    293.77931   -110951.26   -110132.48    11.127907    282408.66  0.037746984 
    6400    281.26236   -110922.16   -110138.26   -218.54271    282827.85  0.037691039 
    6500    305.25862   -110992.21   -110141.43   -4.5101644    283201.71  0.037641282 
    6600    303.58448    -110989.9   -110143.79   -266.41066     283562.4  0.037593402 
    6700    302.32501   -110991.26   -110148.67   -77.385064    283966.49  0.037539906 
    6800    296.11882   -110978.88   -110153.58   -120.56594    284374.92   0.03748599 
    6900    284.70744   -110950.94   -110157.44   -450.94384    284735.58  0.037438508 
    7000    287.32408   -110956.35   -110155.56    416.21808    285022.65  0.037400801 
    7100    308.14995   -111009.74    -110150.9   -211.27073    285345.67  0.037358462 
    7200    288.83245    -110951.1    -110146.1    -246.6284    285727.28  0.037308566 
    7300    291.58463   -110952.54   -110139.88    110.94977    286110.61  0.037258582 
    7400    290.99395   -110941.17   -110130.16   -87.208566    286467.02  0.037212226 
    7500    294.93817   -110939.81    -110117.8    144.32003    286812.15  0.037167447 
    7600    296.79268   -110930.82   -110103.64     298.8627    287221.87  0.037114428 
    7700    304.57028   -110936.95   -110088.09   -41.480581    287740.62  0.037047516 
    7800    301.44287   -110912.95   -110072.81   -295.88419    288281.19  0.036978047 
    7900    309.81328   -110922.47      -110059   -172.59688    288742.27  0.036918999 
    8000    303.80868   -110895.61   -110048.88    6.4986612    289131.12  0.036869347 
    8100    307.29441   -110897.23   -110040.78   -79.296485    289489.66  0.036823683 
    8200    315.15877    -110910.9   -110032.54   -62.511684    289854.66  0.036777313 
    8300    315.56085   -110909.74   -110030.25    41.119175    290255.06  0.036726579 
    8400    317.33683   -110918.61   -110034.17    26.472181    290660.62  0.036675334 
    8500    316.79575    -110926.9   -110043.97    128.95593    291013.68   0.03663084 
    8600    311.95381   -110929.97   -110060.54    -79.05655    291295.53  0.036595396 
    8700     307.3883   -110937.83   -110081.12    78.218043    291551.84  0.036563225 
    8800    310.35734   -110967.89    -110102.9    230.83584     291865.2  0.036523968 
    8900    288.91485   -110930.05   -110124.82     27.68366    292199.98  0.036482122 
    9000    293.17471   -110960.09   -110142.99   -18.840138    292521.96  0.036441967 
    9100     283.4282   -110946.78   -110156.84    55.879951    292824.51  0.036404314 
    9200    292.20972   -110980.25   -110165.84    222.27085    293112.01  0.036368607 
    9300    285.65544   -110966.97   -110170.83   -24.122594    293385.29  0.036334731 
    9400    284.29701   -110963.63   -110171.28    199.57056    293671.38  0.036299333 
    9500    278.63158   -110943.07   -110166.51    46.655585    294004.61  0.036258191 
    9600     292.3916   -110970.78   -110155.87    209.52455    294341.34  0.036216711 
    9700    293.55851   -110959.14   -110140.97   -226.68835    294623.94  0.036181973 
    9800    300.73555   -110961.46   -110123.29    129.22049    294847.31  0.036154562 
    9900    296.67069   -110931.48   -110104.64     2.136402    295028.59  0.036132347 
   10000    297.24286   -110915.65   -110087.22   -49.728394    295193.39  0.036112174 
   10100    314.18389   -110947.09   -110071.45    122.85884    295394.03  0.036087646 
   10200    312.82846   -110932.57    -110060.7    203.95741    295593.41  0.036063305 
   10300    307.86585   -110913.14    -110055.1   -359.40869    295732.23  0.036046376 
   10400     317.8365   -110939.82   -110053.99    423.63695    295819.85    0.0360357 
   10500    307.52108   -110914.58    -110057.5    269.93708    295936.99  0.036021436 
   10600    303.70123   -110909.76   -110063.33   -51.913192    296129.96  0.035997963 
   10700    304.00541      -110918   -110070.72   -205.79148    296356.57  0.035970437 
   10800    308.87006    -110942.9   -110082.06     15.96742     296502.8  0.035952697 
   10900     311.0692    -110964.7   -110097.73    -50.97937    296521.74    0.0359504 
   11000    315.98123   -110998.27   -110117.61    126.13614    296505.91   0.03595232 
   11100    296.44662   -110965.82    -110139.6    200.73302    296585.14  0.035942715 
   11200    283.77544   -110949.61   -110158.71   -223.56339     296788.2  0.035918124 
   11300      284.574   -110965.16   -110172.03   -87.766166    297016.01  0.035890575 
   11400    280.03723   -110959.11   -110178.63   -100.32733    297195.46  0.035868904 
   11500    288.46124   -110984.95   -110180.99   -49.035352     297312.8  0.035854747 
   11600    288.20097   -110981.99   -110178.76   -33.529785    297417.58  0.035842116 
   11700    286.11509    -110970.3   -110172.88   -56.614569    297501.63   0.03583199 
   11800    295.30876   -110985.42   -110162.38   -125.68972    297582.51  0.035822251 
   11900    298.88739   -110983.14   -110150.12    12.383527    297673.67  0.035811281 
   12000    294.34248    -110957.5   -110137.15    125.10845    297782.19   0.03579823 
   12100    298.76806    -110956.4   -110123.72   -106.44251    297865.72  0.035788191 
   12200     294.0754   -110929.77   -110110.17    100.98942    297928.77  0.035780618 
   12300    304.32372   -110945.11   -110096.94   -338.86595    298001.26  0.035771913 
   12400    309.53897   -110949.47   -110086.76    52.535003    298075.05  0.035763058 
   12500    309.08773   -110940.43   -110078.99   -241.52704    298159.74    0.0357529 
   12600     313.2399   -110946.68   -110073.67   -277.15255    298234.54  0.035743932 
   12700    312.64068   -110941.36   -110070.01   -217.44376    298295.14  0.035736671 
   12800    298.08161   -110900.36   -110069.59    217.53634    298416.11  0.035722184 
   12900    297.95017   -110900.79   -110070.38    60.884368    298613.76   0.03569854 
   13000     304.4962   -110920.61   -110071.96    105.50236    298801.86  0.035676068 
   13100    306.92694    -110929.9   -110074.47    9.0388226    298954.61  0.035657839 
   13200    300.46034   -110915.96   -110078.56    -122.2738    299079.85  0.035642907 
   13300    303.30862   -110927.85   -110082.51    185.39955    299197.39  0.035628905 
   13400    285.95745   -110883.19   -110086.21   -85.983384    299282.24  0.035618804 
   13500    298.32751   -110919.65   -110088.19     81.69859    299329.16   0.03561322 
   13600    287.75785   -110890.36   -110088.36    82.607371    299384.89  0.035606592 
   13700    299.93454   -110923.23    -110087.3   -25.288475    299456.05   0.03559813 
   13800    310.88473   -110953.82   -110087.36   -60.635638    299529.69  0.035589378 
   13900     310.3152   -110954.82   -110089.95   -54.214563    299583.55   0.03558298 
   14000    296.42871   -110921.86    -110095.7    36.359217    299614.74  0.035579276 
   14100     292.3681   -110916.37   -110101.52   -22.431873    299640.81   0.03557618 
   14200    302.50651   -110949.27   -110106.17   -55.333581    299650.31  0.035575052 
   14300    299.91143    -110945.7   -110109.83    41.021631       299652  0.035574851 
   14400    300.48439   -110950.23   -110112.77    42.273318    299630.27  0.035577431 
   14500     295.9205   -110938.71   -110113.96    65.123646    299601.44  0.035580855 
   14600    295.51355   -110936.85   -110113.24   -262.72864    299585.27  0.035582776 
   14700    293.09811   -110928.01   -110111.13   -205.24136    299534.39   0.03558882 
   14800    294.73243   -110928.51   -110107.07   -108.87704    299448.56   0.03559902 
   14900    295.19012   -110924.33   -110101.62   -164.04094    299333.37   0.03561272 
   15000    302.20744   -110935.37    -110093.1   -51.622447    299198.16  0.035628814 
   15100    294.66192   -110904.52   -110083.28     237.6774    299028.35  0.035649046 
   15200    303.29351   -110919.71   -110074.41    308.56851    298868.47  0.035668116 
   15300    308.79229   -110927.84   -110067.22   -60.966562    298722.56  0.035685539 
   15400    308.42295   -110923.27   -110063.68    -45.82217    298609.08    0.0356991 
   15500    309.96896   -110927.92   -110064.02   -27.701167    298502.34  0.035711865 
   15600    311.01404   -110935.85   -110069.03   -88.935935    298415.92  0.035722207 
   15700    300.47593   -110913.57   -110076.13    46.898345    298343.26  0.035730907 
   15800    298.39902   -110917.13   -110085.47   -258.15209    298300.14  0.035736072 
   15900    302.26764   -110934.95   -110092.52   -18.574094    298276.18  0.035738943 
   16000    313.79243   -110975.54   -110100.98    339.74986    298257.77  0.035741148 
   16100    287.22628   -110911.73   -110111.21   -317.35644     298261.3  0.035740725 
   16200    297.03433   -110948.78   -110120.92   -166.18064    298265.18  0.035740262 
   16300    288.60303   -110933.33   -110128.98    146.38981    298315.29  0.035734258 
   16400     293.5198   -110953.07   -110135.01    246.65407    298380.32   0.03572647 
   16500    286.93139   -110939.73   -110140.04   -54.951796    298410.88   0.03572281 
   16600    293.90148   -110960.96   -110141.84    154.28887    298403.58  0.035723684 
   16700    297.60796   -110971.73   -110142.28    267.81141    298412.58  0.035722608 
   16800    291.42454   -110952.53   -110140.31    124.66187    298451.96  0.035717894 
   16900    291.04364   -110946.95    -110135.8    27.961423    298503.52  0.035711725 
   17000     299.4503   -110960.69   -110126.11    94.282329    298562.69  0.035704646 
   17100    296.31027   -110939.31   -110113.47    263.55733    298624.28  0.035697283 
   17200    302.90545   -110945.78   -110101.56    5.9940133    298722.36  0.035685563 
   17300    301.45264   -110930.94   -110090.78    199.72371    298815.65  0.035674422 
   17400    316.08139   -110962.54   -110081.61     312.0184    298904.21  0.035663851 
   17500    321.09549   -110971.08   -110076.17    32.398765    298982.52   0.03565451 
   17600    320.04553   -110968.02   -110076.04   -260.11665    299015.73   0.03565055 
   17700     314.6782   -110959.22    -110082.2    280.41664    298959.94  0.035657203 
   17800    307.89999   -110951.26   -110093.13    242.76609    298926.93   0.03566114 
   17900    310.69552   -110973.41   -110107.48    175.27892    298972.39  0.035655718 
   18000    302.11098   -110964.28   -110122.28   -282.40042    299060.47  0.035645217 
   18100    301.10948   -110972.81    -110133.6   -38.347317    299145.61  0.035635072 
   18200     300.5076   -110980.19   -110142.66    53.311526     299241.9  0.035623605 
   18300    292.32436   -110963.75   -110149.02   -165.36822     299364.8  0.035608981 
   18400    295.86407   -110975.24   -110150.65   -44.796516     299487.7  0.035594368 
   18500    293.62722   -110968.17   -110149.81   -522.40191    299587.27  0.035582538 
   18600    298.22424   -110977.47    -110146.3    468.28488    299616.51  0.035579066 
   18700    302.76616   -110984.19   -110140.37    35.440247    299654.59  0.035574544 
   18800    291.03659   -110943.92   -110132.78    124.78728    299690.11  0.035570328 
   18900    296.95012   -110950.77   -110123.15   -168.92031    299740.15   0.03556439 
   19000     299.3251   -110949.37   -110115.14       -167.3     299828.9  0.035553862 
   19100    306.67501    -110962.1   -110107.38    96.444948    299959.15  0.035538424 
   19200    307.38711   -110959.06   -110102.36   -406.60832     300108.7  0.035520714 
   19300    312.59515   -110971.94   -110100.72   -71.576228    300176.66  0.035512673 
   19400    309.76559   -110965.86   -110102.53    93.547841     300178.9  0.035512408 
   19500    309.42221   -110971.65   -110109.27   -133.45114    300194.32  0.035510583 
   19600    305.84506   -110975.38   -110122.97    210.58232    300248.04   0.03550423 
   19700    301.76865   -110982.43   -110141.38   -77.378057    300283.33  0.035500057 
   19800    288.60845   -110966.21   -110161.84   -50.708579    300261.67  0.035502618 
   19900     297.8102   -111006.79   -110176.77    203.68238    300215.25  0.035508107 
   20000    294.91235   -111005.37   -110183.43   -55.143285    300251.77  0.035503788 
   20100    286.83831   -110984.72   -110185.29   -106.58699    300351.37  0.035492016 
   20200    282.30652   -110969.87   -110183.06    321.35201    300479.49  0.035476882 
   20300    283.39513   -110967.24   -110177.41     116.3804    300602.71   0.03546234 
   20400    296.76485   -110995.26   -110168.16     189.4306    300693.92  0.035451583 
   20500    284.51041   -110950.04   -110157.09   -231.65343    300750.12  0.035444958 
   20600     297.3386   -110973.61   -110144.91   -520.71275    300773.63  0.035442187 
   20700    288.66088    -110937.9   -110133.38    150.09852    300789.53  0.035440314 
   20800    288.22039   -110926.01   -110122.73    126.25683     300846.9  0.035433556 
   20900    297.02849   -110939.28   -110111.44   -92.835198    300944.71  0.035422039 
   21000    299.55029   -110935.35   -110100.48     244.6107    301051.52  0.035409472 
   21100    312.04905   -110961.02   -110091.32   -135.11959    301145.14  0.035398464 
   21200    303.50921   -110932.91   -110087.01     47.77384    301207.29   0.03539116 
   21300     306.3293    -110938.1   -110084.34   -47.481247    301233.75  0.035388051 
   21400       314.38   -110961.48   -110085.28    363.26974     301199.6  0.035392064 
   21500    314.81223   -110966.03   -110088.63    -57.58089    301175.99  0.035394839 
   21600    301.37595   -110935.23   -110095.27    286.09092    301186.71  0.035393578 
   21700    290.16752   -110913.38   -110104.67   -127.56475       301204  0.035391547 
   21800    296.22991   -110938.44   -110112.83   -197.42398    301161.67   0.03539652 
   21900    302.26099   -110963.37   -110120.95    370.63331    301103.58  0.035403349 
   22000     292.1271   -110943.38    -110129.2    193.25385    301079.57  0.035406173 
   22100     299.3443   -110972.01   -110137.72   -53.538481     301072.7  0.035406981 
   22200    305.60043   -110997.41   -110145.68   -61.591771    301082.92  0.035405779 
   22300    292.94114   -110971.56   -110155.12    88.799167    301114.03  0.035402121 
   22400    300.08869      -111003   -110166.64    172.19243    301143.27  0.035398684 
   22500    288.29045   -110982.65   -110179.17   -100.86378    301159.58  0.035396767 
   22600    284.51019   -110984.29   -110191.35    44.027014    301189.52  0.035393247 
   22700    283.98906   -110992.66   -110201.16    58.299839    301263.45  0.035384562 
   22800    291.78848   -111022.43    -110209.2   -135.40579    301365.29  0.035372605 
   22900    282.02878   -111001.86   -110215.83   -137.53242    301448.45  0.035362847 
   23000    292.35467   -111036.52   -110221.71    308.03213    301479.22  0.035359237 
   23100    282.26554   -111011.91   -110225.22    33.663792    301459.09  0.035361599 
   23200    280.13088   -111004.66   -110223.92      20.4661     301414.8  0.035366795 
   23300    278.23325   -110990.42   -110214.96    133.85065     301415.2  0.035366747 
   23400    289.76053   -111004.78    -110197.2    274.74685    301460.69  0.035361411 
   23500    283.33817   -110965.83   -110176.15   -367.39118    301523.12   0.03535409 
   23600    296.69305   -110985.78   -110158.88   -226.11235     301560.3   0.03534973 
   23700    304.43058   -110994.85   -110146.39    5.9311093    301589.23   0.03534634 
   23800    295.87971   -110961.12   -110136.48   -144.49461    301603.58  0.035344658 
   23900    305.74244   -110979.67   -110127.55   -208.57191    301618.99  0.035342853 
   24000    306.77986   -110974.65   -110119.63    125.62738    301646.08  0.035339678 
   24100    306.46226   -110967.75   -110113.63   -218.36954    301691.84  0.035334317 
   24200    302.46512   -110952.72   -110109.73    109.47524    301728.32  0.035330046 
   24300    303.76026   -110954.12   -110107.52    161.12793    301747.58  0.035327791 
   24400    308.79922   -110967.81   -110107.17   -7.0460978     301771.5  0.035324991 
   24500    307.78588   -110968.55   -110110.73   -3.3590419    301832.59  0.035317841 
   24600    292.52736   -110932.12   -110116.83   -59.216249    301941.55  0.035305096 
   24700    299.66531   -110960.99    -110125.8     79.48461    302038.01   0.03529382 
   24800    305.23595   -110986.03   -110135.32    84.319163    302106.55  0.035285814 
   24900    304.44536   -110994.05   -110145.54    155.84081    302161.54  0.035279392 
   25000     286.8998   -110953.89   -110154.28   -66.597379    302231.88  0.035271181 
   25100    298.41949   -110991.18   -110159.46   -29.714411    302307.91   0.03526231 
   25200    299.69671   -110999.39   -110164.12   -49.697352    302405.44  0.035250938 
   25300    294.43675   -110987.16   -110166.55   -391.03756    302515.15  0.035238154 
   25400    297.54621   -110996.86   -110167.59   -59.432994    302639.71   0.03522365 
   25500    295.24251    -110990.3   -110167.44   -66.719509    302784.07  0.035206856 
   25600    294.64458   -110986.46   -110165.27   -132.41613    302909.72  0.035192253 
   25700    297.62384   -110988.72   -110159.23    138.65809    302950.58  0.035187506 
   25800      302.291   -110990.34   -110147.84   -272.70549    302954.46  0.035187056 
   25900    301.00796   -110971.51   -110132.59   -150.51112     302945.7  0.035188072 
   26000    301.16391   -110956.68   -110117.32    297.75558     302968.2   0.03518546 
   26100    303.53175   -110950.35   -110104.39   -58.003985    303025.35  0.035178823 
   26200    318.53153   -110981.14   -110093.37   -344.62679    303072.14  0.035173392 
   26300    309.00382   -110949.53   -110088.32   -215.51131    303114.67  0.035168457 
   26400    303.44635   -110932.63   -110086.91   -271.71999    303172.33  0.035161768 
   26500    306.74157   -110943.39   -110088.48    80.856866    303230.73  0.035154997 
   26600    305.08549   -110943.13   -110092.84    135.71829    303289.32  0.035148205 
   26700    306.33629   -110951.91   -110098.13   -44.192792    303321.83  0.035144438 
   26800    301.56608   -110947.31   -110106.83   -33.714405    303318.26  0.035144852 
   26900    300.83384   -110957.31   -110118.87   -84.154704     303343.7  0.035141904 
   27000    298.15507   -110963.73   -110132.75    61.905282    303405.23  0.035134778 
   27100    292.51816   -110961.36   -110146.09   -31.512839    303495.82  0.035124291 
   27200    304.63044   -111003.59   -110154.56   -256.96623    303541.16  0.035119043 
   27300    290.65354   -110970.41   -110160.34   -58.173321    303539.93  0.035119186 
   27400    296.49348   -110988.83   -110162.49   -219.54828    303502.05   0.03512357 
   27500    301.34556   -111003.25   -110163.38   -92.808721     303507.3  0.035122962 
   27600    291.10896   -110972.92   -110161.58   -122.25879    303552.35   0.03511775 
   27700    291.36613   -110969.59   -110157.53   -97.847111    303586.48  0.035113801 
   27800      293.333   -110969.71   -110152.17   -241.14548    303604.07  0.035111767 
   27900    299.63239   -110980.03   -110144.94   -46.228906    303587.09  0.035113731 
   28000    303.33542   -110982.68   -110137.26   -173.61655    303561.76  0.035116661 
   28100    293.17263   -110946.31   -110129.23    120.79977    303551.37  0.035117862 
   28200    301.13128   -110961.49   -110122.22    107.81005    303596.57  0.035112634 
   28300    307.11083   -110972.37   -110116.44    88.119515    303655.02  0.035105876 
   28400     303.7489   -110956.88   -110110.32   -166.36151    303699.28  0.035100759 
   28500    303.90128   -110953.32   -110106.33   -237.52192    303692.09   0.03510159 
   28600      301.922   -110942.97   -110101.49   -4.6898726    303701.77  0.035100472 
   28700    300.04694   -110933.96   -110097.71    37.484964    303772.59  0.035092289 
   28800    307.23195   -110950.41   -110094.14    8.0813105    303889.14   0.03507883 
   28900    313.37521   -110965.49    -110092.1    221.08093    303991.76  0.035066988 
   29000    306.63153   -110947.94   -110093.34    615.97044    304093.97  0.035055202 
   29100    306.88832   -110951.93   -110096.62    -46.53151    304243.63  0.035037958 
   29200     310.1529   -110969.99   -110105.58    374.68327    304375.86  0.035022736 
   29300    308.11837   -110975.84    -110117.1   -124.54804    304484.65  0.035010223 
   29400    306.03814   -110984.51   -110131.57    85.415618    304519.57  0.035006208 
   29500    301.31556   -110988.01   -110148.22    62.335266    304517.09  0.035006493 
   29600     296.9697      -110990   -110162.33    195.38701    304522.66  0.035005852 
   29700    299.68513   -111007.86   -110172.62   -70.075932    304549.61  0.035002755 
   29800    291.20659    -110991.4   -110179.79    11.206802    304550.24  0.035002682 
   29900    297.87199   -111015.14   -110184.95    21.803268    304531.06  0.035004887 
   30000    304.18237   -111035.64   -110187.86    132.65863    304497.44  0.035008753 
   30100    288.97003   -110994.19   -110188.82    183.32343    304475.03  0.035011329 
   30200    296.54869   -111013.72   -110187.22   -96.970233    304458.19  0.035013265 
   30300    292.02554   -110998.26   -110184.37   -68.026728    304407.75  0.035019067 
   30400     296.6101   -111004.15   -110177.48    138.30693    304338.52  0.035027033 
   30500    297.57777   -110997.28   -110167.91    51.406395    304307.57  0.035030596 
   30600    292.63433   -110972.22   -110156.63   -1.8321207    304353.59  0.035025299 
   30700    300.51854   -110981.93   -110144.37   -67.584961    304431.37   0.03501635 
   30800    293.74897   -110950.74   -110132.04   -139.81031    304452.42  0.035013929 
   30900    318.91596   -111010.27   -110121.43   -89.915464    304394.42    0.0350206 
   31000    302.54996   -110956.54   -110113.32    96.383334    304348.04  0.035025938 
   31100    312.14445   -110979.11   -110109.14   -165.90567    304338.12  0.035027079 
   31200     300.3719   -110946.09   -110108.94     66.58664       304333  0.035027669 
   31300    306.53142   -110965.23   -110110.91   -164.13339    304284.62  0.035033238 
   31400    311.87127   -110985.49   -110116.28    29.766095    304213.77  0.035041396 
   31500     303.1774    -110966.9   -110121.92    26.478314    304188.26  0.035044336 
   31600    308.80891   -110989.73   -110129.06   -10.781463    304217.47  0.035040971 
   31700    299.72802   -110972.12   -110136.76   -142.63246    304233.68  0.035039104 
   31800    302.73751   -110985.68   -110141.94    159.36071    304217.81  0.035040932 
   31900    302.64148    -110989.8   -110146.32    93.539797    304190.44  0.035044084 
   32000    307.35636   -111006.68   -110150.06    34.084045    304147.26   0.03504906 
   32100    292.11516   -110967.67   -110153.53   -349.49697    304077.25  0.035057129 
   32200    298.32634    -110986.7   -110155.24    104.18343    303951.18   0.03507167 
   32300    299.09087   -110989.18    -110155.6    329.47602    303838.41  0.035084687 
   32400    295.76767   -110980.12    -110155.8   -148.14093    303813.68  0.035087543 
   32500    292.17322   -110968.92   -110154.62   -138.15301    303809.05  0.035088077 
   32600    304.06107   -110999.92   -110152.49    368.75401    303782.12  0.035091188 
   32700     306.6476   -111004.47   -110149.82    99.222338    303775.61  0.035091939 
   32800    292.16629   -110962.36   -110148.08   -128.73534    303744.13  0.035095576 
   32900    306.11393    -110999.3   -110146.14    -83.65575    303693.77  0.035101397 
   33000    310.35367   -111009.33   -110144.36    193.05096    303645.95  0.035106925 
   33100    314.23895   -111019.78   -110143.98    230.26989     303634.6  0.035108237 
   33200    298.48587    -110977.1   -110145.21   -3.8667087    303671.57  0.035103962 
   33300    297.12958   -110976.71    -110148.6   -218.86714    303731.22  0.035097068 
   33400    305.96116    -111006.7   -110153.96   -118.51206     303755.5  0.035094263 
   33500    309.21198      -111023    -110161.2   -131.36833    303738.21  0.035096261 
   33600    302.05335   -111010.89   -110169.05    195.39952    303737.76  0.035096313 
   33700    295.62912   -110999.59   -110175.65    19.343701    303760.22  0.035093717 
   33800    295.99169   -111006.69   -110181.75   -265.62795    303809.81   0.03508799 
   33900    297.79936   -111016.62   -110186.64    360.84408    303828.54  0.035085826 
   34000    296.65661   -111018.58   -110191.78    241.41614     303852.5   0.03508306 
   34100    299.69839   -111030.89   -110195.61   -4.4576792    303904.48  0.035077059 
   34200    284.16893   -110990.24   -110198.24    -129.2798    303923.06  0.035074914 
   34300    287.08106   -110998.98   -110198.87   -39.590893    303873.52  0.035080632 
   34400     300.9245   -111035.53   -110196.84    166.54226    303774.35  0.035092086 
   34500    295.07202   -111012.89   -110190.51   -94.747524    303670.53  0.035104082 
   34600    290.24244   -110989.91   -110180.98   -105.10033    303570.36  0.035115667 
   34700    296.47771   -110992.83   -110166.53    19.111225    303471.41  0.035127116 
   34800    299.07685   -110984.38   -110150.84   -165.64326    303376.19  0.035138141 
   34900    327.23908   -111051.16   -110139.12   -32.862465    303275.73  0.035149781 
   35000    310.79639   -110998.96   -110132.76    95.603628    303184.44  0.035160364 
   35100    314.02435   -111005.84   -110130.64    120.09422    303101.47  0.035169989 
   35200    310.94801   -110997.27   -110130.64    -141.7987    303011.19  0.035180468 
   35300    302.93358   -110978.28   -110133.99    94.681234    302907.01  0.035192567 
   35400    307.39882   -110995.59   -110138.86    125.37801    302824.89  0.035202111 
   35500     309.5521   -111007.47   -110144.73   -121.90965    302777.31  0.035207643 
   35600    295.85668   -110976.82   -110152.25   -55.015602     302709.5   0.03521553 
   35700    299.87382   -110996.68   -110160.92   -78.100118    302625.88  0.035225261 
   35800    301.00222   -111008.82   -110169.91    -206.4867    302519.83  0.035237608 
   35900    296.65699   -111004.11   -110177.31   -243.46248    302370.11  0.035255056 
   36000    290.62914   -110991.29   -110181.29    -22.11572    302158.75  0.035279717 
   36100    287.74537   -110984.59   -110182.62    88.347011    301960.96  0.035302827 
   36200    300.75771   -111020.11   -110181.88   -10.987129    301791.74  0.035322621 
   36300    296.66695   -111007.69   -110180.86    17.378687    301587.15  0.035346584 
   36400    299.43547   -111014.76   -110180.21    314.55814    301347.17  0.035374732 
   36500    297.85754   -111011.11   -110180.97   -35.163067    301111.54  0.035402414 
   36600    292.81974   -110995.93   -110179.83    37.303194    300914.32  0.035425617 
   36700    303.55624   -111025.52   -110179.49    4.6648236    300729.37  0.035447404 
   36800    290.74223    -110991.2   -110180.88   -92.529111    300546.14  0.035469015 
   36900    291.31013   -110993.27   -110181.37   -29.105652    300395.09   0.03548685 
   37000    297.90921   -111011.11   -110180.82    195.59933    300249.87  0.035504014 
   37100    293.86033   -110998.02   -110179.01    160.03766    300122.04  0.035519135 
   37200    296.77544   -111003.32   -110176.19   -222.62768    300049.95   0.03552767 
   37300    300.58377   -111007.85    -110170.1   -74.280327     299982.1  0.035535704 
   37400    300.06495   -110999.57   -110163.27   -40.349436    299873.44  0.035548581 
   37500    303.83553   -111000.91    -110154.1   -1.8950749    299744.02   0.03556393 
   37600    309.77539   -111008.44   -110145.08    38.451951    299605.88  0.035580328 
   37700    308.67411   -110998.82   -110138.53     129.0679    299485.76  0.035594598 
   37800    307.33023   -110988.95   -110132.41    134.00204    299418.18  0.035602633 
   37900    316.96573   -111013.51   -110130.11   -179.10545    299350.17  0.035610721 
   38000     318.8796   -111021.98   -110133.24   -285.62532    299234.34  0.035624506 
   38100    320.67904   -111036.38   -110142.63   -94.514531    299099.37  0.035640582 
   38200     309.5155   -111022.89   -110160.25    149.33612    298958.65  0.035657357 
   38300    304.33352   -111027.93   -110179.73    -180.7353     298835.4  0.035672064 
   38400    301.31449   -111034.08    -110194.3     246.4884    298720.52  0.035685782 
   38500    302.03421   -111045.73   -110203.94   -48.443359    298633.67   0.03569616 
   38600    294.29647   -111031.25   -110211.03    171.67659     298575.7  0.035703091 
   38700    293.33623   -111034.27   -110216.72    -398.1863    298572.46  0.035703478 
   38800    302.45823   -111064.56   -110221.59   -275.65875    298544.69  0.035706799 
   38900    297.42096   -111055.14   -110226.21   -184.49064    298452.52  0.035717826 
   39000    296.41166   -111056.96   -110230.84    182.70682    298309.73  0.035734924 
   39100    280.43682   -111016.34   -110234.75   -20.702066    298191.99  0.035749034 
   39200    292.45147   -111050.17   -110235.09   -79.816884    298111.42  0.035758695 
   39300    303.54986   -111078.15   -110232.14   -91.352513    298048.96  0.035766189 
   39400    305.81788   -111079.57   -110227.24   -134.45109    297978.14  0.035774689 
   39500    300.73579   -111059.87    -110221.7    -158.4345    297895.48  0.035784616 
   39600     297.3398   -111042.23   -110213.53   -45.954535    297816.65  0.035794088 
   39700    314.46994    -111081.3   -110204.86    271.12841    297729.98  0.035804508 
   39800    314.17667    -111069.7   -110194.07    43.128335    297594.15   0.03582085 
   39900    301.61314   -111023.49   -110182.87    61.493283       297407  0.035843391 
   40000    311.73912   -111041.15   -110172.32   -245.81508    297195.72  0.035868873 
   40100      308.602   -111025.59    -110165.5   -51.237994    297009.43   0.03589137 
   40200    316.77854   -111045.02   -110162.14   -28.064794    296841.44  0.035911682 
   40300    311.94941   -111033.45   -110164.03   -9.4687305    296704.22   0.03592829 
   40400    311.76833   -111040.37   -110171.45    54.732155    296583.93  0.035942862 
   40500    304.60618   -111035.66   -110186.71   -171.51361    296485.63  0.035954779 
   40600    293.33482   -111023.88   -110206.34    151.02615    296409.29  0.035964039 
   40700    295.06357   -111043.76    -110221.4    326.08247    296351.06  0.035971106 
   40800    290.22308   -111040.31   -110231.44    141.85765     296329.7  0.035973698 
   40900    302.76471   -111079.11   -110235.28    57.261779    296338.98  0.035972572 
   41000    295.82206   -111061.48   -110237.01   -209.56275    296374.26  0.035968291 
   41100    297.84294   -111067.08   -110236.97   -33.223988    296383.63  0.035967153 
   41200    306.67122   -111089.39   -110234.68   -252.27693    296347.92  0.035971487 
   41300    293.28682   -111049.51    -110232.1   -74.190038    296279.87  0.035979749 
   41400    305.26055   -111078.17   -110227.39    135.11286    296204.11  0.035988952 
   41500    300.68357   -111059.43   -110221.41    85.640988    296144.63  0.035996179 
   41600    298.40181   -111045.23   -110213.57    221.60914    296121.86  0.035998947 
   41700    297.18676   -111032.67    -110204.4   -108.07196    296131.29  0.035997802 
   41800     293.9451   -111012.88   -110193.64    148.10421    296156.23   0.03599477 
   41900    293.97204   -111000.95   -110181.63    23.863904     296181.7  0.035991674 
   42000    307.09847   -111024.74   -110168.84    78.250295    296202.27  0.035989175 
   42100    304.78054   -111008.96   -110159.52    98.703083    296210.55  0.035988169 
   42200     305.1927    -111004.9   -110154.32    28.506399    296267.29  0.035981276 
   42300    305.36645   -111003.74   -110152.67    -213.6607    296339.48  0.035972512 
   42400    306.79297   -111009.23   -110154.18   -124.23467    296335.39  0.035973008 
   42500    308.48278   -111017.81   -110158.05   -170.71919    296233.11  0.035985428 
   42600    308.28576   -111022.07   -110162.86   -113.84018    296098.01  0.036001847 
   42700    309.15967   -111028.95   -110167.31   -226.07836    295983.25  0.036015807 
   42800    304.66966    -111021.5   -110172.37    60.171446    295885.41  0.036027715 
   42900    303.54979   -111025.52   -110179.51    364.64685    295765.84   0.03604228 
   43000    305.56617   -111039.28   -110187.65   -235.34065    295633.67  0.036058394 
   43100    309.84148   -111059.76   -110196.21   -89.247659    295507.19  0.036073827 
   43200    294.19829   -111025.22   -110205.27    -123.0918    295416.57  0.036084893 
   43300    299.16901   -111046.71   -110212.91   -318.16992    295331.88  0.036095241 
   43400    295.94663   -111043.49   -110218.67    -222.2239    295206.78  0.036110537 
   43500    293.69046   -111042.14   -110223.61   -25.901077    295065.56  0.036127819 
   43600    299.41579    -111061.9   -110227.41   -97.416893    294929.65  0.036144469 
   43700    302.61085   -111076.15   -110232.76    134.07206    294802.99  0.036159997 
   43800    286.80896   -111035.48   -110236.13   -71.137687    294652.67  0.036178445 
   43900    302.67223   -111081.94   -110238.38    49.240192    294486.29  0.036198886 
   44000    298.09072    -111072.4    -110241.6     27.84588    294336.04  0.036217363 
   44100    302.79301   -111088.48   -110244.57     119.7829     294187.4  0.036235663 
   44200     297.0566   -111077.05   -110249.14   -169.99765    294048.39  0.036252793 
   44300    293.65289   -111072.84   -110254.41    206.12725     293919.7  0.036268666 
   44400    290.20886   -111070.49   -110261.66    93.645644    293804.69  0.036282863 
   44500    301.25753   -111109.17   -110269.54   -349.66374    293698.48  0.036295984 
   44600    297.95897   -111108.03    -110277.6   -230.53226     293584.6  0.036310063 
   44700    285.18076   -111078.17   -110283.35    25.860626    293455.18  0.036326076 
   44800    282.28545   -111071.69   -110284.95    10.142814    293278.62  0.036347946 
   44900     286.8271   -111082.35   -110282.95   -405.01338    293087.98  0.036371589 
   45000    296.02506   -111101.61   -110276.57    127.28157    292920.46  0.036392389 
   45100    298.02292   -111098.09   -110267.48    103.18194    292831.69  0.036403422 
   45200    292.30559   -111071.06   -110256.39   -116.19053    292770.76  0.036410997 
   45300    284.12047   -111036.05   -110244.19    16.793611    292697.48  0.036420113 
   45400      296.258   -111057.15   -110231.46    361.15794    292624.44  0.036429204 
   45500    302.77822   -111065.69   -110221.83   -44.245883    292587.85  0.036433759 
   45600    294.91821   -111035.77   -110213.81   -108.34085    292587.78  0.036433769 
   45700    302.45845   -111050.86   -110207.89   -71.343895    292632.25  0.036428232 
   45800    299.02053   -111037.58   -110204.19   -32.133566    292684.62  0.036421713 
   45900    312.75484   -111074.22   -110202.55    206.92943    292705.27  0.036419144 
   46000    308.80359   -111063.38   -110202.73   -20.616728    292696.77  0.036420201 
   46100    300.24372   -111043.14   -110206.34   -19.908952    292683.83  0.036421812 
   46200    304.04867   -111059.27   -110211.86     38.50695    292685.63  0.036421588 
   46300    302.54202   -111062.93   -110219.72    181.98374    292683.62  0.036421838 
   46400     306.4896   -111084.38   -110230.18    71.373639    292682.71  0.036421951 
   46500    296.79375   -111070.21   -110243.02    418.67428    292693.63  0.036420593 
   46600    304.04027   -111105.98   -110258.61   -222.43521    292739.41  0.036414896 
   46700    298.00423   -111104.94   -110274.38    297.03014    292785.44  0.036409172 
   46800    290.30032   -111095.96   -110286.88    165.29728    292792.78  0.036408259 
   46900    290.88479   -111103.29   -110292.58    1.5829726    292773.57  0.036410648 
   47000    287.34015    -111094.4   -110293.56   -0.6446841    292752.03  0.036413327 
   47100    297.22382   -111119.28    -110290.9   -139.29882    292728.02  0.036416314 
   47200    298.02483   -111117.01    -110286.4    276.11694    292657.29  0.036425115 
   47300    304.33218   -111128.52   -110280.33    183.41339    292547.21  0.036438821 
   47400    296.12852   -111098.18   -110272.86    47.227591    292421.77  0.036454452 
   47500    292.08875   -111077.74   -110263.67   -194.22258    292314.99  0.036467769 
   47600    287.58541   -111053.76   -110252.25    40.014422    292234.66  0.036477793 
   47700    300.70323   -111079.68    -110241.6   -104.14462    292141.63  0.036489408 
   47800    292.83912    -111048.3   -110232.14   -327.69933    291994.49  0.036507796 
   47900    299.83778   -111058.74   -110223.07   -15.409679    291830.28  0.036528338 
   48000    301.71245   -111056.63   -110215.74   -165.57221    291700.65  0.036544572 
   48100    302.91343   -111053.62   -110209.38    156.73015     291601.7  0.036556972 
   48200    302.85158   -111050.28   -110206.22    -184.0486    291512.22  0.036568194 
   48300    311.54425   -111073.59    -110205.3     168.2002    291389.11  0.036583644 
   48400    301.60625   -111048.61   -110208.01     32.15784       291206  0.036606647 
   48500    307.17291   -111068.17   -110212.06    116.77109    290986.52  0.036634259 
   48600    286.19294   -111014.39   -110216.75   -78.346484    290791.62  0.036658812 
   48700     295.2329   -111043.24   -110220.41    6.4477399    290618.19  0.036680689 
   48800     298.2135   -111056.62   -110225.49   -201.18004    290481.97   0.03669789 
   48900    302.57925   -111076.87   -110233.56    82.704241    290352.59  0.036714242 
   49000    287.72997   -111047.84   -110245.92    145.37543    290222.53  0.036730695 
   49100    294.47685   -111082.83   -110262.11    128.30692    290055.72  0.036751819 
   49200    283.60189   -111069.34   -110278.93    200.36412    289901.02  0.036771431 
   49300    286.88445   -111090.25   -110290.69    34.577081    289747.55  0.036790908 
   49400    292.07758    -111110.2   -110296.16    238.53373    289604.89  0.036809031 
   49500    280.09622   -111077.61   -110296.97    112.64011    289438.25  0.036830223 
   49600    288.86552   -111097.17   -110292.09   -146.22848    289230.29  0.036856705 
   49700    280.72023   -111065.75   -110283.37    -63.72696    288965.36  0.036890496 
   49800    292.26205   -111087.22   -110272.67   -118.56511    288706.86  0.036923526 
   49900    283.39098   -111050.35   -110260.52   -4.2934495    288473.56  0.036953389 
   50000    299.61838   -111085.69   -110250.64    213.29402    288248.17  0.036982283 
   50100    296.39939   -111069.47   -110243.38    84.095157    288040.48  0.037008949 
   50200    298.04778   -111068.22   -110237.54   -76.094868    287874.81  0.037030247 
   50300    304.11388   -111079.44   -110231.86   -149.04223    287757.31  0.037045367 
   50400    297.46396   -111056.79   -110227.74    48.177678    287622.32  0.037062754 
   50500    293.90153   -111042.98   -110223.86     150.8281    287472.77  0.037082035 
   50600    314.55589   -111097.52   -110220.83    9.0489313    287318.54  0.037101941 
   50700    305.38768   -111070.96   -110219.82    38.838772    287174.72  0.037120521 
   50800    289.46069    -111025.5   -110218.75   -112.98185     287041.3  0.037137776 
   50900    301.83928   -111058.84    -110217.6   -186.56036    286894.87  0.037156731 
   51000    303.32348   -111063.16   -110217.78    1.6340135    286708.16  0.037180928 
   51100    310.60887   -111083.52   -110217.83    -291.1753    286527.16  0.037204415 
   51200    294.02347   -111039.46      -110220   -183.23018    286338.93  0.037228872 
   51300     303.7988   -111071.55   -110224.84    60.432508    286176.67   0.03724998 
   51400    297.83954   -111062.41   -110232.31    68.717601    285987.08  0.037274674 
   51500    303.48816   -111088.26   -110242.42    66.724586    285758.07  0.037304547 
   51600    296.23698   -111080.95   -110255.32    -73.85575    285467.84  0.037342474 
   51700    299.86727   -111103.64   -110267.89   -98.024377     285134.6  0.037386117 
   51800    292.50347   -111092.28   -110277.06   -74.490699    284816.53  0.037427867 
   51900    286.49918   -111081.27   -110282.79    -49.63838    284544.91  0.037463595 
   52000    294.58828   -111106.71   -110285.67   -20.046924    284277.62   0.03749882 
   52100    290.34764   -111093.58   -110284.37   -120.64007    283954.72  0.037541463 
   52200    287.31083   -111080.27   -110279.52   -35.329602    283606.97  0.037587494 
   52300    298.40112   -111100.25   -110268.59    215.51647    283241.56  0.037635986 
   52400    291.70909   -111069.56   -110256.55    511.39338    282884.03  0.037683553 
   52500    304.41406   -111091.24   -110242.82    88.951531    282550.04  0.037728097 
   52600    301.26179   -111070.99   -110231.36     183.1453    282252.18  0.037767912 
   52700    312.16533   -111092.32    -110222.3   -311.57982    281986.31  0.037803521 
   52800    298.10764   -111048.38   -110217.54   -5.4403628    281711.13  0.037840448 
   52900    303.30982   -111060.45   -110215.11   -32.174051    281434.94  0.037877583 
   53000    302.89778   -111058.63   -110214.44   -252.19006    281156.29  0.037915123 
   53100    313.41754   -111089.75   -110216.24     34.44206    280902.33  0.037949402 
   53200    299.20323   -111053.57   -110219.67    538.03093    280641.21  0.037984712 
   53300    294.86174      -111046    -110224.2    210.48731    280384.46  0.038019494 
   53400    303.60723   -111075.33   -110229.16   -134.48916    280126.64  0.038054486 
   53500    309.07379   -111095.62   -110234.21   -16.563668    279872.42  0.038089052 
   53600    295.98706   -111064.55   -110239.62    92.217573    279671.54  0.038116411 
   53700    299.48459   -111079.26   -110244.58   -368.45429    279475.86  0.038143099 
   53800    300.97482   -111086.39   -110247.55   -80.428879    279259.22  0.038172689 
   53900    294.33867   -111069.14    -110248.8    320.65007     279044.1  0.038202116 
   54000    297.85164   -111078.54   -110248.41    172.89383    278872.43  0.038225634 
   54100    285.45347   -111041.87    -110246.3    332.77047    278699.98  0.038249286 
   54200    290.20718   -111047.61   -110238.78    61.867221    278549.41  0.038269962 
   54300    302.09475   -111068.52   -110226.57   -270.96224    278455.74  0.038282836 
   54400    314.36136   -111085.74    -110209.6    155.48337     278379.3  0.038293348 
   54500    316.61187   -111074.08   -110191.67    456.79207    278260.81  0.038309654 
   54600    313.35148    -111051.5   -110178.17    -82.34964    278122.75  0.038328671 
   54700    322.22752   -111068.47    -110170.4    17.243916    277988.26  0.038347214 
   54800    305.07198   -111018.86   -110168.61   -160.38816    277859.33  0.038365008 
   54900    315.58391   -111049.64   -110170.09   -186.96798    277764.35  0.038378127 
   55000    307.03005    -111031.9   -110176.19   -94.698605    277666.02  0.038391718 
   55100    297.07985   -111011.82   -110183.84   -80.168484    277567.28  0.038405375 
   55200    294.47356   -111014.33   -110193.61   -58.979307    277453.12  0.038421177 
   55300    299.56335   -111037.44   -110202.54   -171.86002    277372.24  0.038432381 
   55400    304.09293   -111058.01   -110210.48   -214.55496    277279.21  0.038445274 
   55500    296.34081   -111040.58   -110214.66   -340.89371     277147.7  0.038463517 
   55600    305.53075   -111068.98   -110217.45   -339.81144    276988.49  0.038485625 
   55700    298.94335   -111052.75   -110219.58   -103.47285    276840.26  0.038506232 
   55800    295.88177   -111045.22   -110220.58    30.632232    276691.12  0.038526988 
   55900    300.84281   -111059.93   -110221.46   -100.29084    276519.22  0.038550939 
   56000    302.57504   -111066.26   -110222.96   -124.99378    276333.31  0.038576874 
   56100    296.35802   -111049.83   -110223.86    51.077044    276101.68  0.038609238 
   56200    296.14161    -111049.6   -110224.24   -246.68104    275840.11   0.03864585 
   56300    296.97791   -111052.97   -110225.28   -131.04902    275565.99  0.038684293 
   56400    299.61092   -111060.88   -110225.85   -300.94289    275318.64  0.038719047 
   56500    299.31023   -111060.25   -110226.06   -37.082546    275068.74  0.038754223 
   56600    301.09364   -111065.68   -110226.52   -152.69293    274835.83  0.038787066 
   56700    309.13727   -111091.93   -110230.35    191.66725    274601.92  0.038820105 
   56800    308.09203   -111096.32   -110237.65    141.70465    274386.35  0.038850604 
   56900    293.17145   -111066.02   -110248.93    -204.4125     274143.3  0.038885048 
   57000    295.95107   -111088.71   -110263.87   -199.51479    273844.01  0.038927547 
   57100    293.36936   -111098.14   -110280.51    69.136991    273518.94  0.038973811 
   57200    302.53553   -111138.06   -110294.87   -92.154199     273218.7  0.039016638 
   57300     293.8545   -111123.44   -110304.45    22.675208    272977.63  0.039051096 
   57400    278.37017    -111085.4   -110309.56     118.0204    272780.34  0.039079339 
   57500    283.08629   -111096.56   -110307.59    32.880727    272604.98  0.039104477 
   57600    291.60591   -111115.23   -110302.51   -221.89569    272421.31  0.039130842 
   57700    293.27394   -111113.34   -110295.97   -276.78604    272223.03  0.039159344 
   57800    287.05111   -111088.58   -110288.55    22.403446     271987.3  0.039193284 
   57900    288.44942   -111085.28   -110281.35   -205.83391    271768.33  0.039224862 
   58000    290.13653   -111083.69   -110275.07     169.4166    271565.99  0.039254089 
   58100     296.4508    -111094.6   -110268.37    249.35601    271370.29  0.039282396 
   58200    298.43323    -111094.6   -110262.85   -190.45691     271155.6  0.039313499 
   58300    296.19385   -111083.12   -110257.61    210.17013    270919.12  0.039347814 
   58400    303.18658   -111098.27   -110253.27    313.72047    270689.68  0.039381167 
   58500    302.46364   -111091.93   -110248.94    154.39318     270480.1  0.039411681 
   58600    293.54742   -111063.21   -110245.08    142.10073    270310.37  0.039436428 
   58700    300.19622   -111076.38   -110239.71   -121.55996    270159.72  0.039458418 
   58800    300.42597   -111071.53   -110234.23   -152.25083    269976.57  0.039485188 
   58900    310.28894   -111094.01   -110229.21    75.748161    269736.38  0.039520347 
   59000    303.50199    -111070.6   -110224.72   -47.263518    269493.07  0.039556027 
   59100    318.01507   -111108.56   -110222.23    327.30106    269282.03  0.039587028 
   59200    318.80481   -111111.94   -110223.42   -70.471317    269114.88  0.039611616 
   59300    303.43008   -111075.32   -110229.64   -145.74055    268933.15  0.039638384 
   59400    299.54759   -111074.69   -110239.83   -7.4750618    268718.78  0.039670005 
   59500    303.77035   -111101.25   -110254.62    82.224589    268473.38  0.039706266 
   59600    295.62973   -111095.92   -110271.98   -347.66805    268214.35  0.039744613 
   59700    290.65599   -111097.12   -110287.04    116.43276    267928.34  0.039787039 
   59800    304.11639   -111144.61   -110297.02    66.942109    267636.32  0.039830452 
   59900    295.17572   -111126.18    -110303.5    -80.03393    267396.98  0.039866103 
   60000      302.685    -111149.5    -110305.9   -307.56356    267175.72  0.039899117 
   60100    287.08785   -111105.18   -110305.05    55.810396    266943.01  0.039933899 
   60200    281.57091   -111084.26   -110299.51   -158.15132    266718.48  0.039967517 
   60300    290.23597   -111099.57   -110290.66   -111.31758    266489.11  0.040001918 
   60400    307.88883   -111137.68   -110279.58   -187.45097     266241.5  0.040039119 
   60500    310.73073   -111134.85   -110268.83    415.26773    265988.43  0.040077214 
   60600    292.77978   -111076.25   -110260.26    262.76851    265753.14  0.040112697 
   60700    290.35459   -111063.24      -110254    155.89758    265523.35  0.040147413 
   60800    283.59192   -111038.07   -110247.69    316.91748     265290.7  0.040182619 
   60900    299.19111   -111075.86      -110242   -1.5449629     265010.6  0.040225091 
   61000    305.28365   -111087.78   -110236.94    193.71884    264736.18  0.040266787 
   61100      297.237   -111062.41      -110234   -45.926643    264501.64  0.040302493 
   61200    305.91977    -111085.1   -110232.48   -108.54622    264277.82  0.040336625 
   61300    307.54711   -111089.81   -110232.66   -162.30411    264037.75    0.0403733 
   61400    309.18112   -111096.37   -110234.67    -130.5804    263790.87  0.040411086 
   61500    303.78168   -111085.09   -110238.44   -39.102169    263527.78  0.040451429 
   61600    305.92298   -111094.69   -110242.07    109.30742     263294.4  0.040487284 
   61700      295.225   -111070.08   -110247.27   -343.49345    263079.11  0.040520417 
   61800    310.32314   -111117.65   -110252.76    30.250644    262858.92  0.040554361 
   61900    295.07021   -111082.21   -110259.83    61.652731       262619  0.040591409 
   62000    299.51056   -111103.39   -110268.64   -160.51049     262377.6  0.040628756 
   62100    294.99495   -111101.37    -110279.2    75.571857    262170.11  0.040660911 
   62200    287.45974   -111095.23   -110294.07   -123.07031    261962.54  0.040693129 
   62300    299.80202   -111147.62   -110312.06    83.615248    261744.16  0.040727079 
   62400     279.9982   -111110.38   -110330.01    87.627336    261554.48  0.040756616 
   62500    284.64881   -111131.73   -110338.39   -194.04572    261410.56  0.040779054 
   62600    277.82258    -111114.1    -110339.8   -123.44394    261279.07  0.040799577 
   62700    283.38316   -111126.13   -110336.33    120.40139    261159.26  0.040818293 
   62800    289.81764   -111137.45   -110329.72   -81.635285    261028.55  0.040838734 
   62900    283.01761   -111110.02   -110321.24   -269.28627     260869.7  0.040863601 
   63000    280.70401   -111095.33   -110312.99     107.6941    260664.67  0.040895742 
   63100    292.13299   -111119.45   -110305.25    431.87739     260479.5  0.040924815 
   63200    303.49548   -111143.07   -110297.22    142.73721    260380.65  0.040940352 
   63300    295.75983   -111115.66   -110291.36   -270.40103    260319.02  0.040950043 
   63400    294.67237    -111105.1   -110283.83   -457.62582    260199.62  0.040968835 
   63500    293.44668   -111093.02   -110275.16    -29.22151    260013.32   0.04099819 
   63600    298.68948   -111098.06    -110265.6   -58.774202    259824.27   0.04102802 
   63700    302.76517   -111100.02    -110256.2   -465.88546    259646.97  0.041056036 
   63800    307.70546   -111105.14   -110247.55    229.38344    259470.36  0.041083981 
   63900    301.27667   -111080.85   -110241.18   -279.78476    259275.49   0.04111486 
   64000    304.26534   -111084.03   -110236.02    204.08981    259059.95  0.041149068 
   64100    307.15022   -111089.79   -110233.75    -73.06797    258826.44  0.041186192 
   64200    309.36066   -111095.43   -110233.23    250.40752    258567.24  0.041227478 
   64300    314.76714   -111111.07    -110233.8    1.3940161    258309.83  0.041268563 
   64400    318.02653   -111123.71   -110237.36   -522.35946    258067.94  0.041307243 
   64500     307.9185   -111104.32   -110246.14    83.084505    257835.33   0.04134451 
   64600    305.25082   -111109.62   -110258.87   -201.52992    257619.24  0.041379189 
   64700    296.50173   -111102.52   -110276.15    296.84901    257424.35  0.041410516 
   64800    299.53103   -111127.74   -110292.93    99.706191    257295.24  0.041431297 
   64900    295.68809   -111128.23   -110304.13    155.28161    257208.65  0.041445244 
   65000    302.58161   -111153.53   -110310.22   -58.259774    257124.08  0.041458876 
   65100     297.9418   -111142.93   -110312.55    142.64441    256997.92  0.041479229 
   65200    297.09969   -111141.43   -110313.39   -52.026691    256832.38  0.041505964 
   65300    293.96523   -111130.86   -110311.57   -156.44096    256652.43  0.041535065 
   65400    284.82772   -111102.09   -110308.26   -103.51123    256454.27  0.041567158 
   65500    297.62086   -111131.16   -110301.68   -94.457586    256261.28  0.041598463 
   65600    298.72567   -111126.03   -110293.46   -155.68821    256089.55  0.041626358 
   65700    297.23642   -111113.15   -110284.74    11.531849    255947.85  0.041649403 
   65800    306.22218   -111129.91   -110276.45   -325.95883    255793.42  0.041674548 
   65900    305.45386      -111121   -110269.69   -22.866263    255612.32  0.041704076 
   66000    304.52499   -111111.22   -110262.49     36.22956    255425.54  0.041734572 
   66100    307.35702   -111112.81   -110256.19   -180.42162    255241.09  0.041764731 
   66200    297.52936   -111081.17   -110251.94     96.05528    255039.93  0.041797672 
   66300    298.59889   -111079.95   -110247.73    126.53907    254832.24  0.041831737 
   66400    299.39539   -111078.81   -110244.38    445.89142    254633.64  0.041864365 
   66500    307.07789   -111098.12   -110242.28     85.81966    254453.69  0.041893971 
   66600    307.38071    -111096.2   -110239.51    351.55452    254306.01  0.041918298 
   66700    302.87522   -111079.48   -110235.35    67.598064    254178.21  0.041939375 
   66800    313.11838   -111101.97   -110229.29    125.50521    254045.18  0.041961336 
   66900    315.11065   -111100.61   -110222.37   -97.417785    253879.35  0.041988746 
   67000    311.92298   -111086.82   -110217.48    195.52237       253687  0.042020582 
   67100    309.46959   -111079.66   -110217.15   -219.82489    253509.15  0.042050061 
   67200     307.3701   -111077.57   -110220.91    359.84239    253333.01  0.042079299 
   67300    302.87805   -111073.42   -110229.28    40.533136    253157.58  0.042108457 
   67400    304.25836   -111088.31   -110240.33    25.376488    252977.08  0.042138503 
   67500    303.14307   -111097.17   -110252.29    68.263101    252805.17  0.042167158 
   67600    302.21777   -111106.17   -110263.87    218.51137     252668.2  0.042190016 
   67700    300.39803   -111111.54   -110274.31   -371.79303    252529.05  0.042213263 
   67800     298.9843   -111115.98   -110282.69   -98.900777    252369.12  0.042240014 
   67900    289.76724   -111096.44   -110288.84    167.57231    252209.74  0.042266707 
   68000    288.34911   -111095.56   -110291.91   -77.169454     252075.1  0.042289283 
   68100    298.92757   -111125.61   -110292.48   -321.02903    251886.23  0.042320992 
   68200     302.6319   -111133.81   -110290.36    88.321733    251618.13  0.042366086 
   68300    299.65608   -111120.23   -110285.07   -203.85512    251343.99  0.042412294 
   68400    296.57664   -111103.41   -110276.83   -3.3843386    251086.02   0.04245587 
   68500    284.86161   -111061.17   -110267.24   -269.20175    250844.09  0.042496817 
   68600    300.32773   -111093.28   -110256.24    65.758214    250580.79   0.04254147 
   68700    318.57363   -111131.59   -110243.71    237.74526    250294.99  0.042590047 
   68800    298.97281   -111067.41   -110234.15   -75.780189    249997.58  0.042640714 
   68900    299.41987   -111061.95   -110227.45   -194.07983     249707.5  0.042690248 
   69000    312.96312   -111096.65   -110224.41    112.29715     249464.6  0.042731816 
   69100    318.15565   -111112.74   -110226.02    88.521444    249279.97  0.042763465 
   69200    311.01403   -111103.48   -110236.66    540.54852    249109.46  0.042792737 
   69300    304.16951   -111107.42   -110259.68   -68.104446    248923.39  0.042824723 
   69400    292.19556   -111100.66    -110286.3   -45.803786    248702.45  0.042862768 
   69500    286.54437    -111101.6   -110302.98   -24.914595    248433.88  0.042909104 
   69600    294.65695   -111131.66   -110310.44     143.7594    248169.08   0.04295489 
   69700    287.28576   -111114.26   -110313.58   -356.92404    247962.34  0.042990703 
   69800    295.18256   -111135.52   -110312.83   -237.87289    247764.68     0.043025 
   69900    293.72007   -111126.47   -110307.86    7.5026517    247547.77    0.0430627 
   70000    291.26131   -111112.76      -110301     279.6763     247318.9   0.04310255 
   70100    287.16159   -111092.71   -110292.37    414.46615    247090.09  0.043142465 
   70200    300.27895   -111119.74   -110282.84   -298.15167    246864.68  0.043181857 
   70300    296.73631   -111101.25   -110274.23   -487.91423     246623.6  0.043224068 
   70400    304.06564   -111113.09   -110265.64    273.86305       246388    0.0432654 
   70500    303.84522   -111106.04   -110259.21   -232.05186    246174.25  0.043302966 
   70600    296.89467   -111081.62   -110254.15    24.816671    245984.66  0.043336342 
   70700    315.46554   -111129.09   -110249.86   -543.74611    245810.36  0.043367072 
   70800    299.94896   -111083.64   -110247.66   -155.54052    245657.72  0.043394017 
   70900     306.9602   -111102.11    -110246.6   -238.61157    245537.23  0.043415312 
   71000    304.50864   -111096.63   -110247.95    37.467183    245412.44  0.043437388 
   71100    302.74803   -111095.55   -110251.78    134.02099    245260.83  0.043464239 
   71200    304.05035   -111108.64   -110261.24   -86.679842    245085.88  0.043495266 
   71300    297.08541   -111103.31   -110275.31    40.171035    244883.43  0.043531223 
   71400    296.34406   -111118.19   -110292.26    103.70741    244689.51  0.043565723 
   71500    297.99077   -111138.16   -110307.65   -130.12823    244527.49  0.043594589 
   71600    290.05257   -111128.11   -110319.71    106.66605    244378.51  0.043621165 
   71700     298.5508   -111158.27   -110326.19    122.32156    244197.04  0.043653581 
   71800    295.44196   -111151.37   -110327.95   -168.99699    244009.66  0.043687104 
   71900    286.53781   -111124.93   -110326.34   -1.7850406    243873.54  0.043711488 
   72000    290.33452   -111131.61   -110322.43   -58.909712    243808.71  0.043723112 
   72100    288.87082   -111122.07   -110316.97   -73.506559    243786.24  0.043727142 
   72200    290.77014   -111120.91   -110310.51    -43.21451    243753.26  0.043733058 
   72300    290.53557    -111112.9   -110303.16   -118.78265    243702.77  0.043742119 
   72400    297.89029   -111125.43   -110295.19    19.196492    243626.38  0.043755833 
   72500    300.63182   -111126.01   -110288.13    195.97053    243532.89  0.043772631 
   72600    294.19826   -111102.37   -110282.42   -232.15065    243457.48  0.043786189 
   72700     295.7617   -111101.62   -110277.32    157.38605    243381.05  0.043799939 
   72800    307.03044    -111127.6   -110271.89    348.87612    243308.24  0.043813047 
   72900    293.85699    -111086.8    -110267.8   -267.63217    243265.88  0.043820676 
   73000     303.7686   -111112.08   -110265.46    96.893932     243241.6  0.043825051 
   73100    306.20946   -111119.38   -110265.95   -280.20995    243201.57  0.043832265 
   73200    304.50851   -111117.41   -110268.72   -242.03453    243138.57  0.043843621 
   73300    300.97373   -111109.77   -110270.94    118.39388    243097.54  0.043851021 
   73400    302.61472   -111115.51   -110272.11   -66.257589    243088.13  0.043852719 
   73500    307.15626   -111129.08   -110273.02    84.541527    243092.82  0.043851872 
   73600    300.01383   -111110.24   -110274.08   -106.86649    243087.12  0.043852901 
   73700    311.01068   -111141.73   -110274.92    145.35511    243017.65  0.043865437 
   73800    300.70882   -111113.33   -110275.23    201.55811    242920.32  0.043883012 
   73900    298.81314   -111109.31    -110276.5   -278.09568    242861.01  0.043893728 
   74000    298.22034   -111107.55   -110276.39    297.20228    242825.56  0.043900137 
   74100    300.35784   -111112.03   -110274.91   -211.43239    242784.59  0.043907544 
   74200    301.81994   -111114.53   -110273.34    123.01929    242700.06  0.043922838 
   74300     305.1147   -111122.16   -110271.79   -191.92716    242599.63  0.043941021 
   74400    305.12837   -111122.31    -110271.9   -57.447717    242494.33  0.043960101 
   74500    313.37761   -111148.59   -110275.18    24.952922    242369.72  0.043982702 
   74600    303.31043   -111125.36   -110280.01    -606.3204    242229.78  0.044008112 
   74700    293.43835   -111106.98   -110289.15   -41.285004    242099.27  0.044031837 
   74800    294.77008   -111121.97   -110300.43    205.05976    242013.62  0.044047418 
   74900    299.60618   -111148.15   -110313.13   -268.87031    241945.36  0.044059846 
   75000    292.26101   -111139.48   -110324.93    214.33984    241841.07  0.044078847 
   75100    293.35487   -111151.41   -110333.82     27.44084    241689.41  0.044106506 
   75200    288.46035   -111144.14   -110340.19   -195.54479    241522.14  0.044137052 
   75300    290.24154   -111151.64   -110342.72   -177.43117    241389.66  0.044161276 
   75400    280.09211   -111122.48   -110341.85   -161.85239    241312.71  0.044175358 
   75500    289.80171   -111146.02   -110338.33    90.355147    241284.78  0.044180471 
   75600    281.08937    -111113.9   -110330.49   -276.76486    241275.26  0.044182214 
   75700    301.59079   -111160.02   -110319.47    49.637973    241233.78  0.044189811 
   75800    299.45961   -111140.23   -110305.62    9.1391394    241144.46  0.044206179 
   75900    303.98133   -111140.69   -110293.48   -194.04374    241029.39  0.044227284 
   76000     303.1373   -111128.99   -110284.13    287.00391    240885.46  0.044253711 
   76100    303.44989   -111122.63    -110276.9    11.452233    240760.51  0.044276678 
   76200    301.06044   -111111.18   -110272.11   -557.60087    240683.45  0.044290854 
   76300    298.83635   -111102.09   -110269.22    75.098195    240619.51  0.044302622 
   76400    300.08113   -111104.21   -110267.87   -178.15253    240541.59  0.044316973 
   76500     309.9831   -111131.85   -110267.91   -309.95748    240434.92  0.044336636 
   76600    302.51323   -111110.89   -110267.77   -85.155862    240344.04    0.0443534 
   76700    316.12954    -111149.3   -110268.23     117.3284    240307.55  0.044360135 
   76800    301.82626   -111112.57   -110271.37    153.39176    240287.47  0.044363842 
   76900    302.03542   -111118.34   -110276.55   -285.24452    240260.28  0.044368863 
   77000    289.36289   -111089.45   -110282.98    132.82892    240215.41   0.04437715 
   77100    300.13702   -111124.85   -110288.35    586.99705    240161.91  0.044387035 
   77200    306.59532   -111148.37   -110293.88    66.778998    240121.11  0.044394578 
   77300    302.11593   -111140.62   -110298.61   -49.859743    240122.64  0.044394296 
   77400    299.15573   -111139.34   -110305.57    146.30128    240115.44  0.044395626 
   77500    302.82463   -111157.57   -110313.58    -161.0685    240056.85  0.044406463 
   77600     304.2581   -111175.73   -110327.75    209.55196    239971.16  0.044422319 
   77700     294.2251   -111167.91   -110347.89    -464.9189    239908.91  0.044433845 
   77800    278.20291   -111144.87    -110369.5    197.51357     239861.1  0.044442702 
   77900    275.99097   -111151.01   -110381.81   -322.89306    239833.77  0.044447767 
   78000    284.32022   -111178.73   -110386.31    -220.1344    239822.58   0.04444984 
   78100    280.66587   -111165.24   -110383.01   -204.08453    239818.38  0.044450619 
   78200    276.18241   -111145.18   -110375.44   -119.53054    239822.14  0.044449922 
   78300    288.60023   -111168.84    -110364.5    205.96117    239814.97  0.044451252 
   78400    292.34153   -111167.41   -110352.64   -29.069033    239785.12  0.044456785 
   78500    285.11116   -111136.35   -110341.73   -86.092497    239742.02  0.044464776 
   78600    294.76653   -111152.46   -110330.93    111.59666    239702.43  0.044472121 
   78700    303.88062    -111168.5   -110321.57     53.75381    239658.71  0.044480234 
   78800    292.02828    -111127.2    -110313.3    129.18338    239608.39  0.044489575 
   78900    294.68979    -111125.1   -110303.78   -367.50584    239550.91   0.04450025 
   79000    289.64601   -111101.29   -110294.03   -119.61466    239486.61  0.044512197 
   79100    301.93027   -111125.27   -110283.77   -300.65313    239404.34  0.044527495 
   79200    299.05791   -111108.57   -110275.08    7.2777964    239323.41  0.044542552 
   79300    304.87799   -111116.36   -110266.64     10.10211    239261.16   0.04455414 
   79400    293.91557   -111078.92   -110259.76   -214.69294    239214.38  0.044562854 
   79500     304.2095   -111102.04   -110254.19   -33.113679    239146.68  0.044575469 
   79600     302.0383   -111092.81   -110251.01    75.265562    239089.17  0.044586191 
   79700     307.2885   -111105.17   -110248.74    417.66294    239041.46  0.044595091 
   79800    305.44713   -111100.86   -110249.56    -108.6928    239012.76  0.044600444 
   79900    303.58014   -111097.95   -110251.86   -157.99694    238986.23  0.044605396 
   80000    303.09098   -111100.84   -110256.11    49.845466    238955.96  0.044611046 
   80100    304.53652   -111112.15   -110263.39   -1.9676204    238927.67  0.044616328 
   80200    295.42949   -111097.83   -110274.45   -167.07564    238942.11  0.044613632 
   80300    303.41322   -111134.87   -110289.24    -269.4447    238984.68  0.044605684 
   80400    302.16792   -111149.58   -110307.42    5.6435059    239017.66  0.044599529 
   80500    296.12755   -111148.32   -110322.99   -196.97988     239064.2  0.044590848 
   80600    286.75686   -111131.77   -110332.56    344.79073    239143.55  0.044576052 
   80700    293.47997   -111153.97   -110336.03   -12.379167    239257.98  0.044554732 
   80800    288.79848   -111139.92   -110335.02    -316.4377    239340.42  0.044539387 
   80900    284.58443   -111123.86    -110330.7   -531.84838    239363.22  0.044535144 
   81000    295.62204   -111147.58   -110323.66    152.28742    239351.32  0.044537358 
   81100     292.8416   -111131.98   -110315.81    107.55644    239340.54  0.044539363 
   81200    293.21579   -111124.72   -110307.51    81.512642    239324.89  0.044542277 
   81300    295.77235   -111125.27   -110300.93   -12.665963    239318.82  0.044543405 
   81400    300.89799   -111132.27   -110293.65   -296.85807    239319.25  0.044543325 
   81500    303.82418   -111134.43   -110287.65    316.23086    239327.92  0.044541712 
   81600    300.86935   -111120.91   -110282.37    98.047843    239346.41  0.044538272 
   81700    303.13961   -111124.49   -110279.63     35.05696     239354.1  0.044536841 
   81800    297.43737    -111106.9   -110277.93   -66.211415    239346.78  0.044538202 
   81900    297.80949   -111106.97   -110276.95    111.92258    239331.03  0.044541134 
   82000    306.59504    -111130.9    -110276.4   -43.919302    239308.22  0.044545379 
   82100    296.75418   -111105.55   -110278.48   -38.997274    239252.92  0.044555675 
   82200    306.50624   -111136.92   -110282.67    688.73684    239175.08  0.044570176 
   82300    304.24467   -111140.86   -110292.91   -158.30298    239085.96   0.04458679 
   82400    300.21246   -111147.34   -110310.63    46.948602    238992.39  0.044604245 
   82500    295.71815   -111156.77   -110332.58   -34.825387    238914.89  0.044618714 
   82600    272.02906   -111107.17   -110349.01   -187.57648    238835.44  0.044633557 
   82700    288.53508   -111161.55   -110357.39   -138.30635    238746.79  0.044650131 
   82800    292.47304   -111175.29   -110360.15    83.060656    238676.39    0.0446633 
   82900    292.19201   -111174.24   -110359.88   -168.10093    238631.78  0.044671651 
   83000    279.86738   -111135.84   -110355.83   -33.930426       238596  0.044678349 
   83100    287.52635    -111149.4   -110348.05   -150.51478    238553.13  0.044686378 
   83200    302.74215   -111183.56    -110339.8    405.86057    238502.23  0.044695915 
   83300     300.0806   -111169.83   -110333.49    58.362753    238471.03  0.044701763 
   83400    290.01586   -111135.56   -110327.27   -198.06026    238440.57  0.044707473 
   83500    303.43011   -111166.47   -110320.79   -88.257688     238392.1  0.044716563 
   83600    294.86606   -111136.19   -110314.38   -294.89454    238313.28  0.044731353 
   83700    300.82889   -111144.05   -110305.62   -16.984132    238230.49  0.044746897 
   83800    301.48861   -111137.22   -110296.95   -3.2254347    238182.94  0.044755831 
   83900     308.2504   -111148.52    -110289.4    140.35185    238184.55  0.044755528 
   84000    309.98104   -111147.43    -110283.5     -87.3619    238182.53  0.044755908 
   84100    302.12447   -111122.05   -110280.01   -298.05534    238116.94  0.044768235 
   84200    302.84676   -111121.14   -110277.09   -57.734703    238012.19  0.044787938 
   84300    300.41122   -111112.09   -110274.83    381.99591    237911.46  0.044806902 
   84400    309.30544   -111138.03   -110275.98    322.63246    237847.32  0.044818984 
   84500    301.15436   -111119.84   -110280.51     128.9161    237800.81   0.04482775 
   84600    309.85453   -111156.01   -110292.43   -90.046159    237770.65  0.044833436 
   84700    292.21119   -111128.66   -110314.25     14.65284     237733.6  0.044840424 
   84800    303.72826   -111182.84   -110336.34    198.30196    237713.34  0.044844245 
   84900    298.85795   -111185.03    -110352.1    -59.70367    237711.18  0.044844654 
   85000    297.50301   -111191.27   -110362.11    145.77568    237681.13  0.044850323 
   85100    285.26595   -111161.04   -110365.99     179.1356    237612.88  0.044863204 
   85200    298.00963   -111197.32   -110366.75    55.708017    237544.82  0.044876059 
   85300    291.63403   -111178.14   -110365.33    175.12911    237507.09  0.044883188 
   85400    300.34682   -111197.95   -110360.87   -209.06354    237463.26  0.044891473 
   85500    305.92693   -111206.88   -110354.25   -398.49527    237410.27  0.044901491 
   85600    296.95052   -111172.16   -110344.54    347.90889    237347.95  0.044913281 
   85700     289.6228   -111140.54   -110333.35   -308.50033    237320.36  0.044918503 
   85800    301.33977   -111161.98   -110322.13    273.53098     237307.2  0.044920994 
   85900    304.89425   -111160.94   -110311.18   -122.75436    237298.41  0.044922659 
   86000    288.47723   -111106.46   -110302.46    413.99066    237279.08  0.044926317 
   86100    309.13166   -111157.24   -110295.67    129.86314    237246.36  0.044932514 
   86200    303.69742   -111137.99   -110291.57    92.324028    237193.85  0.044942462 
   86300    298.26545   -111120.46   -110289.18    -59.64512    237138.42  0.044952966 
   86400    290.77731   -111098.52   -110288.11    93.638969    237086.01  0.044962904 
   86500    320.38124   -111180.15   -110287.23    13.017223    237013.46  0.044976667 
   86600    303.16754   -111132.57   -110287.63   -52.848044    236964.41  0.044985976 
   86700    298.19411   -111120.12   -110289.04    132.75131    236944.54   0.04498975 
   86800    299.25313   -111125.36   -110291.33   -147.16499    236944.67  0.044989724 
   86900    308.86778   -111157.91   -110297.08    33.893426    236960.64  0.044986691 
   87000    298.89212    -111141.8   -110308.77    66.817086    236993.15  0.044980521 
   87100    302.45165   -111170.75    -110327.8    169.92145    237020.93   0.04497525 
   87200    293.33226   -111164.57   -110347.04    167.61109    237054.71  0.044968841 
   87300    283.93127   -111152.14   -110360.81    71.776205    237110.21  0.044958313 
   87400    277.94987   -111142.74   -110368.08    101.17598    237182.91  0.044944533 
   87500    287.21409   -111170.75   -110370.27   -85.581823    237251.38  0.044931563 
   87600    288.49651   -111172.08   -110368.02    162.23541    237292.18  0.044923838 
   87700    292.62391   -111177.65   -110362.09    63.045632    237341.02  0.044914593 
   87800    291.14648   -111165.87   -110354.43    227.57956    237408.32  0.044901861 
   87900    296.81597   -111170.79   -110343.55   -175.70859    237492.93  0.044885864 
   88000     299.7901   -111167.63   -110332.09    154.46234     237573.8  0.044870584 
   88100    303.42288   -111166.38   -110320.73      150.419     237639.7  0.044858142 
   88200    304.89651   -111162.69   -110312.92   -162.76243    237652.67  0.044855694 
   88300    298.43834   -111139.16   -110307.39     199.2609    237589.18   0.04486768 
   88400    297.29063    -111129.3   -110300.74   -131.66818    237497.61   0.04488498 
   88500     298.4225    -111127.6   -110295.88    25.360188    237392.63  0.044904829 
   88600    304.03848   -111140.07    -110292.7   -357.75477    237300.31  0.044922298 
   88700    306.81372   -111145.88   -110290.77   -220.14284    237201.39  0.044941033 
[...]
  978700    300.59991   -111577.81   -110740.02   -1214.7179    9385.5405    1.1357977 
  978800    277.79867   -111521.72   -110747.48   -17495.211    9381.5409    1.1362819 
  978900    283.49819   -111545.77   -110755.64    4391.0863    9375.5556    1.1370073 
  979000    281.11965   -111548.33   -110764.84   -2099.3768    9369.0104    1.1378016 
  979100    287.74003   -111576.64   -110774.69   -3856.1456    9360.8618    1.1387921 
  979200    292.38086   -111597.59   -110782.71    1417.1004    9352.1641    1.1398512 
  979300    284.78128   -111581.71   -110788.01   -3483.0247    9343.5725    1.1408993 
  979400    293.90829   -111606.99   -110787.86   -2742.2318    9334.6482      1.14199 
  979500    294.15474    -111601.8   -110781.97    203.41437    9324.2282    1.1432663 
  979600    283.52758   -111561.17   -110770.96   -8691.5168    9313.3133    1.1446061 
  979700    292.22928   -111570.19   -110755.73   -6298.7551     9301.859    1.1460156 
  979800    291.24443      -111551   -110739.28    2584.7422    9290.3288    1.1474379 
  979900    291.33028      -111538   -110726.05   -7676.6759    9277.7484    1.1489938 
  980000    300.95562   -111554.51   -110715.73   -2803.2912     9264.491     1.150638 
  980100    295.08458   -111530.51    -110708.1    2948.1358    9251.8263    1.1522131 
  980200    301.37398   -111541.93   -110701.99    8558.3721    9239.5424    1.1537449 
  980300    298.26842   -111528.96   -110697.66    12.286538    9227.9657    1.1551923 
  980400    296.95508   -111521.92   -110694.29    13775.349    9216.8277    1.1565883 
  980500    312.91925   -111563.53   -110691.41    7356.8475    9206.7828    1.1578502 
  980600     299.0915   -111523.61   -110690.02   -3297.1162    9196.7583    1.1591123 
  980700    302.82597   -111533.54   -110689.55    8439.6461    9187.0056    1.1603428 
  980800    311.83266   -111561.96   -110692.86   -5393.8075    9178.6197    1.1614029 
  980900    302.37422   -111540.46   -110697.72   -5207.1217    9172.8032    1.1621393 
  981000    305.39502   -111556.07   -110704.92    4734.1253    9168.2251    1.1627196 
  981100    306.10699   -111567.89   -110714.75      4006.17    9164.6089    1.1631784 
  981200    301.49093   -111567.13   -110726.85   -8870.4689    9161.8952    1.1635229 
  981300    296.90855   -111570.01   -110742.51   -3861.5447    9159.3547    1.1638457 
  981400    286.17026   -111554.52   -110756.94     5099.413    9157.4532    1.1640873 
  981500    299.11273   -111599.97   -110766.33    2820.8223    9156.1559    1.1642523 
  981600    279.24091   -111549.85   -110771.59    1781.9019    9155.7713    1.1643012 
  981700    292.78517   -111589.35   -110773.35    4405.6313     9154.702    1.1644372 
  981800    288.33481   -111574.11   -110770.51   -3378.3821    9153.2258     1.164625 
  981900    294.66766    -111587.1   -110765.84   -1176.8535    9152.3225    1.1647399 
  982000    287.48026   -111561.04   -110759.81    8950.7084    9152.3577    1.1647354 
  982100    293.83727   -111570.36   -110751.42    3308.3993    9152.8644     1.164671 
  982200    293.85495    -111561.9   -110742.91   -151.83588    9153.7868    1.1645536 
  982300    293.43422   -111552.53   -110734.71    10102.792    9155.0447    1.1643936 
  982400    292.97718   -111544.29   -110727.74   -3897.9945    9156.5524    1.1642019 
  982500    307.02694    -111578.7      -110723   -3088.3856    9158.6468    1.1639356 
  982600    294.55223   -111540.35   -110719.42   -6002.0959    9161.0012    1.1636365 
  982700    299.76242   -111552.32   -110716.87    6933.8618    9165.3216     1.163088 
  982800    298.90038   -111547.07   -110714.01    5952.4726    9171.4014     1.162317 
  982900    300.87008   -111550.43   -110711.89    2939.2511    9179.0277    1.1613513 
  983000    301.60694   -111549.37   -110708.78    7899.8161    9187.7374    1.1602503 
  983100    292.20003   -111521.68    -110707.3   -4038.6609    9198.7339    1.1588633 
  983200    297.45393   -111534.45   -110705.43   -4647.4515     9210.512    1.1573814 
  983300    304.96602   -111553.15   -110703.19   -3863.1709    9222.0468    1.1559338 
  983400    312.64263   -111573.05   -110701.69    5018.2701    9233.7331    1.1544708 
  983500    298.26442   -111530.77   -110699.49   -1455.5284    9246.3337    1.1528975 
  983600    303.49732   -111542.95   -110697.08   -5916.3666    9259.9234    1.1512056 
  983700    301.81182   -111534.46   -110693.29   -1834.9416    9273.2642    1.1495494 
  983800    303.27218   -111533.93   -110688.69     2867.562    9285.4042    1.1480465 
  983900     294.7676   -111505.29   -110683.76   -6194.7039    9297.6231    1.1465377 
  984000    301.18638   -111517.35   -110677.93   -337.38105    9311.0094    1.1448893 
  984100     310.8313   -111538.85   -110672.55   -7220.7955    9324.7844    1.1431981 
  984200    304.34582   -111518.11   -110669.88   -4952.2843    9337.4912    1.1416423 
  984300      308.372   -111527.17   -110667.72    257.00731    9350.0831    1.1401049 
  984400    311.89713   -111536.82   -110667.54    5461.2239     9363.598    1.1384593 
  984500    303.62974   -111514.62   -110668.39    7540.7276    9378.6255    1.1366351 
  984600    311.79112   -111540.52   -110671.54   -4723.7187    9393.1121    1.1348822 
  984700    290.49493   -111487.14   -110677.51    461.15016    9405.9252    1.1333362 
  984800    311.35312   -111551.77   -110684.01    1849.4763      9416.54    1.1320586 
  984900    290.50462   -111501.73   -110692.08    -9084.788    9426.1978    1.1308988 
  985000    302.44734   -111543.14    -110700.2   -3596.6854    9434.9093    1.1298546 
  985100    306.01972   -111563.73   -110710.84    2669.8577    9442.8483    1.1289046 
  985200    299.49274   -111556.09   -110721.39   -3273.3081    9449.8807    1.1280645 
  985300    288.30347   -111532.81    -110729.3    7622.0645    9454.5347    1.1275093 
  985400    295.21465   -111558.07   -110735.29    1609.7383    9456.7662    1.1272432 
  985500    297.85311   -111568.53    -110738.4   -6776.2554    9458.1216    1.1270817 
  985600    293.41153   -111557.01   -110739.26    1261.4364    9460.0896    1.1268472 
  985700    284.20128   -111528.66   -110736.58    1208.0133    9461.9968    1.1266201 
  985800    289.62888   -111536.22      -110729   -3159.3583    9462.6812    1.1265386 
  985900    298.45728   -111547.11    -110715.3   -1392.8268    9460.5447     1.126793 
  986000    302.04894   -111537.77   -110695.94   -1961.0044    9455.9354    1.1273422 
  986100    311.50432   -111544.56   -110676.38   -1944.2677    9449.8356    1.1280699 
  986200    308.75343   -111523.23   -110662.72   -1376.1582    9441.8169     1.129028 
  986300    303.52048   -111503.25   -110657.33    13954.721    9432.0058    1.1302024 
  986400    308.87483   -111517.01   -110656.16   -4509.5095    9422.5736    1.1313337 
  986500    300.54534   -111494.84    -110657.2   -1031.2143    9413.1457    1.1324668 
  986600    300.70297   -111497.95   -110659.87    6715.3762    9403.8101    1.1335911 
  986700    307.54807   -111520.82   -110663.67   -2743.3712    9394.6176    1.1347003 
  986800    314.59571   -111545.08   -110668.28    5324.9981    9383.4476     1.136051 
  986900     304.9724   -111524.62   -110674.65   -284.83266    9371.2411    1.1375308 
  987000    314.23874   -111557.88   -110682.08    2786.2137    9359.0937    1.1390072 
  987100    297.79386   -111522.19   -110692.22   -11386.677    9347.6283    1.1404043 
  987200    306.10472   -111552.62   -110699.48    5565.1235    9336.4649    1.1417678 
  987300    301.19033   -111545.75   -110706.32    10312.677    9325.4002    1.1431226 
  987400     286.3945   -111510.47   -110712.27    7603.1055    9314.8859    1.1444129 
  987500    296.34337   -111542.63   -110716.71    366.98705    9304.8328    1.1456493 
  987600    299.14016   -111554.08   -110720.36   -3009.9713    9294.8367    1.1468814 
  987700    290.59936   -111535.36   -110725.44    6258.7524    9285.2639    1.1480638 
  987800    301.70968   -111569.56   -110728.68    10692.063    9276.5529    1.1491419 
  987900    309.66482   -111596.48   -110733.43   -2028.4714    9268.0573    1.1501952 
  988000    306.84663   -111596.74   -110741.54    7409.9021    9258.6941    1.1513584 
  988100    280.09181   -111537.93    -110757.3   -3198.5049    9249.3752    1.1525184 
  988200    283.57628   -111566.38   -110776.03   -7521.7277    9241.1764    1.1535409 
  988300    286.19283   -111588.72   -110791.09   -4846.5704    9233.7428    1.1544696 
  988400    285.91135   -111595.96   -110799.11   -6722.3873    9225.6771    1.1554789 
  988500    284.83131   -111595.24    -110801.4    2301.7413    9214.8628    1.1568349 
  988600    282.00946   -111584.17    -110798.2   -4582.0343    9202.6768    1.1583668 
  988700    288.42642   -111592.76    -110788.9    5241.1751    9189.4343    1.1600361 
  988800    286.91388   -111575.56   -110775.92   -1142.2897    9176.9651    1.1616123 
  988900    286.13331   -111557.64   -110760.17    5969.9675    9165.9605    1.1630069 
  989000     296.1683   -111573.37   -110747.94     -8620.85    9155.7119    1.1643087 
  989100    286.64771   -111537.36   -110738.46    2625.6564    9145.9163    1.1655558 
  989200    292.91914   -111545.81   -110729.43    26.971102    9135.6947    1.1668598 
  989300    302.99682   -111565.45   -110720.98    1465.3045    9125.8911    1.1681134 
  989400    301.75472   -111554.63   -110713.62   -9875.1064    9118.1831    1.1691008 
  989500    299.89642    -111544.9   -110709.08    1186.3069    9111.6347     1.169941 
  989600    298.73628    -111538.6      -110706    3023.0248    9105.2437    1.1707622 
  989700    299.72716   -111539.01   -110703.65   -4833.7497    9100.2674    1.1714024 
  989800    300.00436   -111537.85   -110701.72    3199.5907     9097.076    1.1718134 
  989900    294.35653   -111519.34   -110698.95    775.86086    9095.6301    1.1719997 
  990000    303.66149   -111543.02    -110696.7    2285.1648    9095.6934    1.1719915 
  990100    303.22523   -111539.73   -110694.62    3460.7871    9097.9882    1.1716959 
  990200    311.25329   -111562.45   -110694.97   -361.25508    9102.2278    1.1711501 
  990300    313.06002   -111570.24   -110697.73   -311.38405    9108.6252    1.1703276 
  990400    301.54193   -111545.71    -110705.3    9719.1938    9116.3898    1.1693308 
  990500    295.32645   -111540.11   -110717.01    4840.2187    9125.2654    1.1681935 
  990600    298.83386   -111563.87      -110731    645.97375    9134.9763    1.1669516 
  990700    303.27909   -111590.45    -110745.2     2960.937    9146.2811    1.1655093 
  990800    304.07092      -111605   -110757.53    6892.5738    9159.0941    1.1638788 
  990900    293.71461   -111584.22   -110765.62   -9719.0914    9173.2461    1.1620832 
  991000    286.98893   -111570.07   -110770.22    7423.2789    9186.9262    1.1603528 
  991100    287.79007   -111573.74   -110771.65   -3189.7865    9200.4277      1.15865 
  991200    296.96384   -111596.48   -110768.82   -431.78919    9212.7172    1.1571044 
  991300    286.02179   -111559.76    -110762.6   -14255.257    9224.5021    1.1556261 
  991400    289.02682    -111560.1   -110754.57    3460.8377    9236.4608    1.1541299 
  991500    290.92893   -111555.77   -110744.94    1664.4583    9249.5617    1.1524952 
  991600    292.00733    -111549.3   -110735.46   -3495.7661    9262.5982    1.1508731 
  991700    300.09262   -111563.22   -110726.84   -15565.719    9275.1388    1.1493171 
  991800    292.72807   -111535.74   -110719.89    5585.3266    9287.6028    1.1477747 
  991900     297.1416   -111543.01   -110714.86    7540.7067    9299.6335    1.1462898 
  992000    299.33519   -111545.52   -110711.26   -1960.4658    9311.2274    1.1448625 
  992100    298.08921   -111539.43   -110708.64   -1606.7542    9322.4206    1.1434879 
  992200    301.24863   -111544.82   -110705.22   -2768.1321    9332.6733    1.1422317 
  992300     294.9602   -111524.81   -110702.74   -1911.1397    9342.7701    1.1409973 
  992400     296.7194   -111526.17   -110699.19    2303.6511    9352.8897    1.1397628 
  992500    295.68941   -111520.67   -110696.57    930.52592    9362.7053    1.1385679 
  992600    304.51879   -111540.25   -110691.53    -2594.914    9370.9542    1.1375656 
  992700     297.5205   -111516.53   -110687.32     5101.956    9378.2654    1.1366788 
  992800     302.1842   -111523.34   -110681.14   -6570.7883    9384.7588    1.1358923 
  992900    296.23473   -111500.19   -110674.57   -4153.8941    9389.9681    1.1352622 
  993000    300.68696   -111504.61   -110666.58   -4029.5788     9393.219    1.1348692 
  993100    308.41455    -111517.9   -110658.33   -4425.2204    9395.9286     1.134542 
  993200    303.64781   -111495.16   -110648.88    191.05829    9397.4241    1.1343614 
  993300     300.8545    -111477.7    -110639.2    5353.4451    9398.3704    1.1342472 
  993400    316.80314   -111514.46   -110631.51    -4249.399    9399.3589    1.1341279 
  993500    316.53685   -111509.81    -110627.6   -2244.3913    9399.7069    1.1340859 
  993600    315.90712   -111508.03   -110627.58   -7082.1294    9398.5463     1.134226 
  993700    299.02702   -111468.26   -110634.85   -386.87195    9396.8721    1.1344281 
  993800    311.08067   -111514.53   -110647.53    4559.5072    9396.3093     1.134496 
  993900    303.36467   -111511.19   -110665.69    3499.3393    9396.0787    1.1345238 
  994000    302.99492   -111528.38   -110683.92   -4669.9294    9396.3452    1.1344917 
  994100    297.16755   -111527.74   -110699.52   -4687.2505    9398.0524    1.1342856 
  994200    289.63543   -111517.76   -110710.53    -3448.154    9399.2329    1.1341431 
  994300    303.87899   -111564.23    -110717.3   -1817.8772    9399.7805    1.1340771 
  994400    299.86754   -111558.11   -110722.36    4725.4846    9399.7189    1.1340845 
  994500    302.57722   -111569.08   -110725.78   -700.71138    9398.7293    1.1342039 
  994600    293.16257   -111545.81   -110728.75    187.22092    9395.5627    1.1345862 
  994700    293.42768   -111548.04   -110730.24   -248.74244    9390.8434    1.1351563 
  994800    299.50341   -111563.92   -110729.19   -7619.4409     9384.874    1.1358784 
  994900    294.92497   -111547.64   -110725.66    6242.9396    9378.5174    1.1366483 
  995000    302.94685   -111563.83    -110719.5   -5465.9977     9372.204    1.1374139 
  995100    302.60226   -111553.01   -110709.64   -2825.9173    9366.0787    1.1381578 
  995200    300.02035    -111535.6   -110699.43   -1925.3088    9359.9157    1.1389072 
  995300    306.67622   -111544.74   -110690.01   -2939.3198    9353.8895    1.1396409 
  995400    302.66234   -111524.28   -110680.74    2645.6699    9346.8444    1.1404999 
  995500    302.83894   -111515.93    -110671.9    4839.2832    9339.7889    1.1413615 
  995600    314.24528   -111540.31   -110664.49    2936.6953    9334.6451    1.1419904 
  995700    307.87799   -111518.43   -110660.36   -4466.4227    9330.3177    1.1425201 
  995800    312.71989   -111529.42   -110657.85   -6148.8795    9326.6802    1.1429657 
  995900    306.52553   -111512.75   -110658.44    3203.0754    9323.1366    1.1434001 
  996000    294.19203   -111483.88   -110663.95   -6077.1799    9321.2064    1.1436369 
  996100    301.68437   -111514.46   -110673.65    3299.3602    9319.8722    1.1438006 
  996200    306.89647   -111547.73   -110692.39    2945.5163    9319.2029    1.1438827 
  996300    302.87381   -111557.55   -110713.42    6367.9542    9319.1475    1.1438895 
  996400    291.50305   -111543.25   -110730.82    1009.2291    9320.5057    1.1437228 
  996500     292.6446   -111556.03   -110740.41   -370.93234    9323.0619    1.1434093 
  996600    282.84858   -111532.62    -110744.3    -1998.392     9325.472    1.1431138 
  996700    285.93575   -111540.18   -110743.26   -3701.3784    9327.4515    1.1428712 
  996800      291.257   -111551.37   -110739.62    11266.618    9327.8136    1.1428268 
  996900    301.35215   -111573.85   -110733.97   -2800.4782    9328.6525     1.142724 
  997000    293.85961   -111546.13   -110727.13   -2459.4278    9331.5702    1.1423667 
  997100    302.77729   -111562.68   -110718.82    9133.6447    9334.3935    1.1420212 
  997200    291.23418   -111521.21   -110709.53   -4113.7889    9335.3718    1.1419015 
  997300    311.67768   -111568.71   -110700.04   -5868.0758    9335.2686    1.1419142 
  997400    304.36024   -111539.94   -110691.67    -3542.488    9336.0877     1.141814 
  997500    314.56794   -111562.62    -110685.9    6422.7016    9337.5244    1.1416383 
  997600    301.43753   -111522.83   -110682.71    7429.8077    9340.3651    1.1412911 
  997700    299.32817   -111515.28   -110681.04    -6777.744    9343.2766    1.1409354 
  997800    306.62513   -111535.62   -110681.04    2866.5322    9345.2738    1.1406916 
  997900      316.471   -111565.64   -110683.62    1446.6509    9347.2856    1.1404461 
  998000    297.94903   -111520.79   -110690.39    1625.6681    9350.3671    1.1400703 
  998100    303.57092   -111549.14   -110703.07   -7638.9495     9353.072    1.1397405 
  998200    293.73728   -111541.06    -110722.4   -7391.4502    9354.1366    1.1396108 
  998300    284.31243   -111534.75   -110742.36    4909.3263    9353.6101     1.139675 
  998400    292.59342   -111571.13   -110755.65    1923.9487    9352.5002    1.1398102 
  998500    291.05216   -111573.43   -110762.25    5907.6936    9352.8007    1.1397736 
  998600    281.47611   -111549.37   -110764.88   -830.26106    9355.6185    1.1394303 
  998700    288.10677   -111565.52   -110762.55    1253.0978     9359.857    1.1389143 
  998800    295.82387   -111581.65   -110757.17   -2824.8258    9364.2155    1.1383842 
  998900    300.56622   -111586.37   -110748.67    -6619.196    9368.6788    1.1378419 
  999000    291.06258   -111550.14   -110738.93    6300.6807    9372.2004    1.1374144 
  999100    294.53392   -111548.07   -110727.18   -8535.4368    9375.3467    1.1370327 
  999200    298.03203   -111546.44    -110715.8   -9170.5637    9377.6345    1.1367553 
  999300    308.56193   -111566.37   -110706.39   -5589.5133    9379.2657    1.1365576 
  999400     298.7143   -111532.49   -110699.95    2764.2397    9380.4826    1.1364101 
  999500    298.37724   -111526.98   -110695.39    6205.4476    9381.7399    1.1362578 
  999600    295.88356   -111517.53   -110692.88   -2609.9204    9382.9162    1.1361154 
  999700    303.49828   -111538.29   -110692.42    2545.3061    9384.7779      1.13589 
  999800    306.65323    -111548.7   -110694.04    5597.8613     9387.134    1.1356049 
  999900     314.2007   -111570.37   -110694.68   -7456.3828    9390.8264    1.1351584 
 1000000    295.59965   -111520.21   -110696.36    5182.4767    9394.5313    1.1347107 
Loop time of 86315.8 on 1 procs for 1000000 steps with 936 atoms

Performance: 0.250 ns/day, 95.906 hours/ns, 11.585 timesteps/s
100.0% CPU use with 1 MPI tasks x no OpenMP threads

MPI task timing breakdown:
Section |  min time  |  avg time  |  max time  |%varavg| %total
---------------------------------------------------------------
Pair    | 71510      | 71510      | 71510      |   0.0 | 82.85
Neigh   | 267.91     | 267.91     | 267.91     |   0.0 |  0.31
Comm    | 19.787     | 19.787     | 19.787     |   0.0 |  0.02
Output  | 1.5632     | 1.5632     | 1.5632     |   0.0 |  0.00
Modify  | 14515      | 14515      | 14515      |   0.0 | 16.82
Other   |            | 1.035      |            |       |  0.00

Nlocal:    936 ave 936 max 936 min
Histogram: 1 0 0 0 0 0 0 0 0 0
Nghost:    8769 ave 8769 max 8769 min
Histogram: 1 0 0 0 0 0 0 0 0 0
Neighs:    590029 ave 590029 max 590029 min
Histogram: 1 0 0 0 0 0 0 0 0 0

Total # of neighbors = 590029
Ave neighs/atom = 630.373
Neighbor list builds = 10000
Dangerous builds not checked

Please see the log.cite file for references relevant to this simulation

Total wall time: 23:58:35
