LAMMPS (09 Jan 2020)
package omp 0
WARNING: OpenMP support not enabled during compilation; using 1 thread only. (../fix_omp.cpp:125)
units			real
atom_style		charge
read_data input_files/d1500000_lmps.dat
  orthogonal box = (-15 -15 -15) to (50 50 50)
  1 by 1 by 1 MPI processor grid
  reading atoms ...
  936 atoms
  read_data CPU = 0.00111294 secs
reset_timestep		0

pair_style              reax/c lmp_control lgvdw yes
pair_coeff              * * ffield C H O N

neighbor		2.5 bin
neigh_modify		delay 0 every 5 check no

fix			qeq all qeq/reax 1 0.0 10.0 1e-6 reax/c
fix			bonds all reax/c/bonds 500 bonds.reaxc
fix			npt all npt temp 300 300 100 iso 1.0 1.0 2000
fix 1 all reax/c/species 10 10 100 species.out cutoff 1 4 0.25
WARNING: Resetting reneighboring criteria for fix reax/c/species (../fix_reaxc_species.cpp:97)


thermo			100
thermo_style            custom step temp pe etotal press vol density
thermo_modify           flush yes

timestep		0.25

dump			1 all custom 1000 dump/dump.reax.npt.* id type xu yu zu
restart			500 restart.npt300 restart.npt300
run 1000000
Last active /omp style is pair_style reax/c/omp
Neighbor list info ...
  update every 100 steps, delay 0 steps, check no
  max neighbors/atom: 2000, page size: 100000
  master list distance cutoff = 12.5
  ghost atom cutoff = 12.5
  binsize = 6.25, bins = 11 11 11
  2 neighbor lists, perpetual/occasional/extra = 2 0 0
  (1) pair reax/c/omp, perpetual
      attributes: half, newton off, ghost, omp
      pair build: half/bin/newtoff/ghost/omp
      stencil: half/ghost/bin/3d/newtoff
      bin: standard
  (2) fix qeq/reax/omp, perpetual, copy from (1)
      attributes: half, newton off, ghost
      pair build: copy
      stencil: none
      bin: none
Per MPI rank memory allocation (min/avg/max) = 70.31 | 70.31 | 70.31 Mbytes
Step Temp PotEng TotEng Press Volume Density 
       0            0   -111592.18   -111592.18   -519.68187       274625  0.038816842 
     100    138.49084   -111965.46   -111579.48    143.43685    274608.04   0.03881924 
     200    167.15228   -112024.31   -111558.45   -140.45918     274569.6  0.038824674 
     300    174.04969   -112019.88    -111534.8    190.80608    274499.83  0.038834543 
     400    163.47506   -111961.71   -111506.09   -148.41734    274404.32   0.03884806 
     500    173.10175   -111957.78   -111475.34   -64.645146    274260.83  0.038868385 
     600    180.71799   -111946.43   -111442.76   -13.756667    274084.27  0.038893423 
     700    185.11582   -111923.77   -111407.84   -31.382903    273892.99  0.038920585 
     800     197.1128   -111919.81   -111370.45    44.119513    273698.84  0.038948194 
     900    205.90414   -111905.96   -111332.09   -392.52275    273498.11  0.038976779 
    1000    205.55584   -111866.03   -111293.13   -123.66195     273275.7    0.0390085 
    1100    206.42482   -111826.97   -111251.65    47.215139    273085.01  0.039035739 
    1200    216.41168   -111813.29   -111210.13    16.121687    272968.36  0.039052422 
    1300    234.95624    -111822.8   -111167.97    127.46823    272892.92  0.039063217 
    1400    237.91346   -111787.81   -111124.73   -103.69325    272834.23   0.03907162 
    1500    248.96966   -111775.99    -111082.1    -300.1446       272771  0.039080678 
    1600     242.1331   -111713.99   -111039.15   -94.617152    272700.98  0.039090711 
    1700    262.77811    -111728.5   -110996.12    99.241516    272612.35   0.03910342 
    1800    265.00212   -111692.95   -110954.37   -35.651255    272530.73  0.039115132 
    1900    276.59306    -111684.2   -110913.32   -179.06075    272502.16  0.039119232 
    2000    277.81043   -111648.67   -110874.39    29.184173    272534.06  0.039114653 
    2100     281.6897   -111622.42   -110837.34    204.43976    272643.41  0.039098966 
    2200    292.02284    -111616.5   -110802.61   -94.424246    272762.28  0.039081926 
    2300    311.21873   -111635.61   -110768.22    76.429448    272838.44  0.039071017 
    2400    305.36375   -111588.73   -110737.67    108.49863    272928.68  0.039058099 
    2500    312.18418   -111581.81   -110711.73    33.396245    273070.02  0.039037883 
    2600    306.77332   -111545.18   -110690.18   -54.358763    273242.44  0.039013249 
    2700    323.13082   -111575.37   -110674.78    96.860308    273424.71  0.038987242 
    2800     313.9574   -111539.77   -110664.75    64.933518    273644.26  0.038955962 
    2900    319.40798   -111551.56   -110661.35   -144.04722    273895.43  0.038920238 
    3000    309.72849   -111528.05   -110664.82    199.52452    274174.35  0.038880644 
    3100    320.10359   -111566.19   -110674.05    61.129064     274465.7  0.038839372 
    3200    313.95005   -111562.07   -110687.07    -22.26378    274757.32  0.038798149 
    3300    306.12774   -111557.39    -110704.2    121.04531    275021.41  0.038760893 
    3400    303.85944   -111568.93   -110722.05   -102.74076    275245.44  0.038729344 
    3500    305.81176   -111592.91   -110740.59     178.8901    275422.54  0.038704441 
    3600    291.61735   -111569.43   -110756.68    26.064975     275564.8  0.038684459 
    3700    294.84205   -111591.97   -110770.23    214.28517     275729.3   0.03866138 
    3800     277.7337   -111554.08   -110780.02   -151.02392    275897.14   0.03863786 
    3900     279.7361   -111565.54    -110785.9   -307.38505    276043.86  0.038617325 
    4000     283.3918   -111575.44   -110785.61     88.82512    276137.36  0.038604249 
    4100    297.93592   -111614.19   -110783.82   -134.01096    276208.21  0.038594347 
    4200    294.89641   -111601.76   -110779.87   -114.98805    276303.16  0.038581084 
    4300      300.688   -111613.27   -110775.23   -81.866362    276400.42  0.038567507 
    4400    294.17607   -111588.69    -110768.8   -153.51793    276510.51  0.038552152 
    4500    298.43883   -111591.95   -110760.18    -196.9651    276557.53  0.038545598 
    4600    288.84212   -111553.24   -110748.22   -124.14777    276541.54  0.038547827 
    4700    302.67247   -111579.64   -110736.07    52.573146    276528.93  0.038549585 
    4800    292.98817   -111541.26   -110724.68   -49.244581    276547.76  0.038546959 
    4900    299.66107   -111547.87   -110712.69   -236.61139    276608.51  0.038538494 
    5000    300.64663   -111538.76   -110700.84   -25.260203     276685.3  0.038527798 
    5100    311.83943   -111560.11      -110691   -185.49664    276773.54  0.038515514 
    5200    307.05353   -111537.58    -110681.8   -49.402595    276855.87  0.038504061 
    5300     310.2284   -111539.73    -110675.1    256.32698    276929.22  0.038493863 
    5400    307.63773   -111529.96   -110672.55    164.73723    276976.56  0.038487283 
    5500    312.25188   -111544.89   -110674.62    140.35311    277030.12  0.038479843 
    5600    314.68756   -111557.35   -110680.29   -154.10972     277059.2  0.038475804 
    5700    300.18487   -111525.48   -110688.84   -180.16812    277034.23  0.038479272 
    5800    297.25754   -111527.94   -110699.47    45.871719    276988.16  0.038485671 
    5900    310.13071   -111574.69   -110710.34    187.21042    276981.09  0.038486654 
    6000    301.96835   -111565.26   -110723.65    314.72415    277000.26   0.03848399 
    6100    295.92708   -111562.12   -110737.36   -449.17066     276983.9  0.038486264 
    6200    288.15882   -111553.43   -110750.31    259.39345    276882.49  0.038500359 
    6300    289.10275   -111567.62   -110761.87   -10.086185    276800.54  0.038511758 
    6400    297.57049   -111600.52   -110771.17     -190.358    276768.87  0.038516164 
    6500    287.60179   -111579.08   -110777.52   -87.596015    276734.06   0.03852101 
    6600     282.4558   -111567.89   -110780.67   -97.273785    276668.83  0.038530092 
    6700    287.61384   -111581.85   -110780.25   -132.43373    276562.89  0.038544851 
    6800    296.36012   -111602.79   -110776.82    477.24487    276437.31   0.03856236 
    6900    303.15382   -111615.19   -110770.28    39.736759    276334.73  0.038576677 
    7000    296.02846   -111588.16   -110763.11    236.63027    276257.06  0.038587521 
    7100    288.96275   -111560.04   -110754.69   -102.59627    276213.63  0.038593589 
    7200    293.85992   -111563.84   -110744.83   -51.039538    276205.42  0.038594736 
    7300    303.20942   -111580.94   -110735.88   -102.95744     276170.6  0.038599602 
    7400    307.93182   -111584.56   -110726.33   -117.96415    276124.16  0.038606094 
    7500    309.23552    -111581.3   -110719.45    79.815349    276051.17  0.038616302 
    7600    311.91625   -111584.66   -110715.34   -234.25857    276016.12  0.038621206 
    7700    303.35062   -111558.18   -110712.72    233.39827    275990.23  0.038624828 
    7800    301.49435   -111552.64   -110712.36    50.523816    275940.29  0.038631819 
    7900    313.03057   -111586.65   -110714.22    317.72679    275860.64  0.038642973 
    8000     307.0643   -111574.76   -110718.95    89.012155    275788.31  0.038653108 
    8100    305.32938   -111576.55   -110725.58   -63.003294    275746.15  0.038659018 
    8200    309.49184    -111597.3   -110734.73   -85.176807    275723.08  0.038662252 
    8300    299.84305   -111581.92   -110746.24    -170.1485    275675.35  0.038668947 
    8400    299.13682   -111592.29   -110758.58   -110.61008    275572.48  0.038683381 
    8500     297.4788   -111600.73   -110771.64    382.37691    275432.33  0.038703064 
    8600    289.02297   -111587.39   -110781.86   -19.566078    275320.26   0.03871882 
    8700    296.44303    -111617.7   -110791.49    39.228575    275254.03  0.038728136 
    8800    287.67498   -111600.06   -110798.29    112.04478    275219.82  0.038732949 
    8900     281.3402   -111585.81    -110801.7    265.71644    275219.98  0.038732927 
    9000    291.90268   -111614.67   -110801.12    249.93059    275239.52  0.038730177 
    9100     296.9209   -111626.17   -110798.64    235.71521    275277.59   0.03872482 
    9200    290.83348   -111605.22   -110794.65   -236.88352    275354.56  0.038713997 
    9300    287.83905   -111589.78   -110787.55   -302.08119    275461.53  0.038698962 
    9400    297.09286   -111606.27   -110778.25    399.98837    275588.98  0.038681066 
    9500    315.11518   -111646.12   -110767.87   -118.57367    275759.12  0.038657199 
    9600    298.70195   -111591.06   -110758.56     -488.023    275946.57  0.038630939 
    9700    296.78491   -111577.23   -110750.07    225.17858    276150.29  0.038602442 
    9800    305.27973    -111592.3   -110741.47     299.1542    276361.03  0.038573005 
    9900    301.54917   -111576.65   -110736.22    164.36566    276528.39   0.03854966 
   10000     298.8401    -111565.7   -110732.81   -67.465146    276704.26  0.038525159 
   10100    299.43845   -111565.16    -110730.6    202.35917    276880.32  0.038500661 
   10200    298.99791   -111561.16   -110727.84   -287.81427    277039.24  0.038478575 
   10300    312.91379    -111600.6   -110728.49    280.11219    277188.62  0.038457839 
   10400    299.19377    -111564.5   -110730.63   -40.825911    277313.93  0.038440461 
   10500    305.65413   -111584.79   -110732.92     339.5077    277382.79  0.038430919 
   10600     297.1881   -111563.61   -110735.33    137.43242    277405.91  0.038427716 
   10700    303.83105   -111585.62   -110738.83   -160.17976    277378.08  0.038431571 
   10800    300.01452   -111578.54   -110742.39   -220.03493    277319.55  0.038439683 
   10900    305.01806   -111596.26   -110746.16    -105.0471    277210.02   0.03845487 
   11000     302.5153   -111595.19   -110752.06    20.521803    277074.09  0.038473736 
   11100    305.17957   -111606.86   -110756.31    21.195366    276945.42  0.038491612 
   11200    287.12838   -111560.78   -110760.54    21.158862    276841.44  0.038506068 
   11300     296.3352   -111590.38   -110764.47   -168.04319    276756.15  0.038517935 
   11400    304.58449   -111617.79   -110768.89    234.53698    276615.37  0.038537538 
   11500    291.21974   -111585.41   -110773.76    77.854938    276457.32   0.03855957 
   11600    295.44719   -111600.53   -110777.11    406.08629    276341.45  0.038575739 
   11700    289.57577   -111587.05   -110779.98     224.7131    276272.64  0.038585346 
   11800    292.35161   -111596.91    -110782.1   -88.449482     276177.6  0.038598624 
   11900    311.61835   -111651.47   -110782.98    285.74051    276031.31  0.038619081 
   12000    303.90042   -111631.23   -110784.25    106.88775    275903.21  0.038637011 
   12100    299.63599   -111620.58   -110785.48    105.90142    275820.04  0.038648662 
   12200    303.74712   -111631.81   -110785.25   -126.73202    275764.64  0.038656426 
   12300    298.04457   -111615.04   -110784.37    81.489239    275731.28  0.038661103 
   12400    293.66381   -111601.32   -110782.86   -23.253047    275716.19  0.038663218 
   12500    292.54351   -111595.41   -110780.08    59.848827    275747.18  0.038658874 
   12600    290.80281   -111587.06   -110776.58   -106.01649    275818.57  0.038648867 
   12700    302.61385   -111616.23   -110772.83   -95.586661    275901.64   0.03863723 
   12800    294.08073   -111588.58   -110768.96   -150.31367    275977.53  0.038626606 
   12900     294.9485   -111587.66   -110765.62   -160.28844    276061.21  0.038614897 
   13000    303.20868   -111607.01   -110761.95    -148.1604    276136.02  0.038604437 
   13100    302.60888   -111600.88   -110757.49   -499.79465    276169.56  0.038599748 
   13200    307.92983   -111611.38   -110753.16    200.93116    276180.27   0.03859825 
   13300    304.68379   -111599.42   -110750.25   -225.64976    276214.33  0.038593492 
   13400    307.84138   -111606.16   -110748.18    -130.6853    276205.07  0.038594786 
   13500    307.87865   -111604.47    -110746.4    -12.65928    276214.33  0.038593491 
   13600    299.21697   -111579.67   -110745.74    172.61524    276277.05   0.03858473 
   13700    294.70928   -111567.21   -110745.83   -128.05635    276327.98  0.038577619 
   13800    297.30163   -111574.23   -110745.64   -127.27526    276291.49  0.038582713 
   13900    298.46892   -111579.53   -110747.68   -119.52936    276196.22  0.038596022 
   14000    303.57846   -111596.26   -110750.17   -47.141268    276109.79  0.038608103 
   14100    304.11602   -111603.41   -110755.82    177.67871    276028.93  0.038619413 
   14200    296.57599   -111590.33   -110763.76   -12.764553    275919.07  0.038634791 
   14300     299.6892    -111607.1   -110771.84   -344.89752    275752.58  0.038658116 
   14400    291.89536   -111593.92   -110780.39    -12.25529    275501.11  0.038693402 
   14500    289.18873   -111595.03   -110789.04   -57.138691    275201.38  0.038735545 
   14600    289.67048    -111601.9   -110794.57    67.932855    274946.84  0.038771405 
   14700    286.89961   -111599.36   -110799.75    36.743929     274739.6  0.038800651 
   14800    304.09781    -111649.3   -110801.76   -128.90177    274541.81  0.038828605 
   14900    284.75931   -111595.64      -110802    112.02343    274353.81  0.038855212 
   15000    285.91658   -111594.95   -110798.08    42.439637    274165.05  0.038881963 
   15100    294.77738   -111609.92   -110788.36     63.45883    273952.67  0.038912107 
   15200    288.97573   -111579.62   -110774.23   -162.60786    273728.15  0.038944023 
   15300    312.63709    -111627.7   -110756.36    15.834751    273515.45  0.038974308 
   15400     304.4828   -111589.15   -110740.54   -47.985202    273283.48   0.03900739 
   15500    295.45019   -111553.02   -110729.58   -221.66033    273072.56   0.03903752 
   15600    304.38533   -111572.13   -110723.79    302.77265     272831.1  0.039072068 
   15700    322.45685   -111619.98   -110721.28   -110.97964    272606.24  0.039104297 
   15800    314.02798   -111596.69   -110721.47    83.756665    272421.75  0.039130779 
   15900    301.51394   -111565.75   -110725.41    38.341679    272271.48  0.039152375 
   16000    317.34662   -111617.23   -110732.77    218.45255    272107.62  0.039175953 
   16100    313.27259   -111616.03   -110742.92    90.055882    271944.85  0.039199401 
   16200    304.10575   -111600.67   -110753.11   -77.028726    271781.94  0.039222898 
   16300    291.17099   -111573.28   -110761.77    98.908625    271622.17   0.03924597 
   16400    296.49943   -111594.92   -110768.56   -108.83118    271470.05  0.039267961 
   16500    304.44455    -111622.8    -110774.3    275.03454    271345.83  0.039285938 
   16600    299.89991    -111613.6   -110777.76   -207.04606    271264.09  0.039297776 
   16700    299.90107   -111615.19   -110779.35    63.198378    271223.22  0.039303697 
   16800    299.66158   -111614.42   -110779.25    88.835223     271172.3  0.039311078 
   16900    296.87035   -111605.08   -110777.68    226.51858    271058.03   0.03932765 
   17000    300.65652    -111614.4   -110776.45   -153.43346    270912.96  0.039348709 
   17100    291.79676   -111587.94   -110774.68    148.65786    270750.71   0.03937229 
   17200    300.02114   -111609.29   -110773.11    76.025157    270597.69  0.039394554 
   17300    293.28981   -111589.87   -110772.46   -173.50431    270413.12  0.039421442 
   17400    295.83637   -111594.89   -110770.38    134.37717     270189.3    0.0394541 
   17500    297.04407   -111593.32   -110765.44    273.14248    269981.58  0.039484454 
   17600     303.4415   -111605.45   -110759.74    262.78097     269836.2  0.039505727 
   17700    298.01938   -111578.87   -110748.27   -269.86571    269707.87  0.039524525 
   17800    315.66816   -111610.16   -110730.38    74.700632    269560.19  0.039546179 
   17900    300.45709   -111550.24   -110712.85   -162.54392    269424.94   0.03956603 
   18000    312.76154   -111570.42   -110698.74    171.87387    269291.92  0.039585575 
   18100    319.16404   -111580.29   -110690.76   -85.739202    269195.44  0.039599762 
   18200    303.06331   -111534.59   -110689.93   -81.980423    269077.59  0.039617105 
   18300    314.51549   -111569.73   -110693.15   -275.32058    268955.16   0.03963514 
   18400    318.08374   -111588.67   -110702.15    220.22226    268794.17  0.039658878 
   18500    303.03386    -111559.6   -110715.02    218.32461    268612.16  0.039685751 
   18600    299.98824   -111565.25   -110729.16   -213.55795    268398.92  0.039717281 
   18700    300.32194   -111577.99   -110740.97    63.839566     268185.2  0.039748932 
   18800    299.10789    -111585.3   -110751.67   -128.79063    267968.19  0.039781123 
   18900    301.22869   -111599.76   -110760.22    150.82074     267742.3  0.039814686 
   19000    297.44613   -111596.47   -110767.47   0.66007338    267503.79  0.039850185 
   19100    298.46529   -111603.53   -110771.69    -208.1117     267238.5  0.039889744 
   19200    283.18365   -111564.17   -110774.92   -49.025219    266960.19   0.03993133 
   19300    305.58921   -111629.02   -110777.32    445.78193    266659.61   0.03997634 
   19400    284.64089    -111570.4   -110777.09    213.58264    266395.38  0.040015993 
   19500    301.53157   -111615.83   -110775.44   -78.394278    266141.38  0.040054183 
   19600    294.98078   -111593.02   -110770.89    186.36916    265846.56  0.040098603 
   19700    299.20443   -111596.75   -110762.85   -227.27887    265521.61  0.040147676 
   19800    295.70146   -111578.01   -110753.87     -62.8403    265185.68  0.040198533 
   19900    300.97807    -111582.7   -110743.86     97.76341    264859.52  0.040248036 
   20000    303.80749   -111581.29   -110734.56    13.278439    264577.99  0.040290862 
   20100    308.19292   -111583.93   -110724.98    132.08193    264345.93  0.040326232 
   20200    306.25763   -111568.56      -110715   -537.57467    264118.06  0.040361024 
   20300    319.39266   -111596.71   -110706.54    224.20556    263884.25  0.040396785 
   20400    308.86858   -111560.05   -110699.22   -151.85395    263697.59   0.04042538 
   20500    311.72221   -111561.76   -110692.97   -62.359491    263539.81  0.040449583 
   20600    318.94124   -111575.29   -110686.38   -397.37473    263361.76   0.04047693 
   20700    305.70076   -111534.91   -110682.91    97.130609    263185.88  0.040503978 
   20800    307.22509    -111538.7   -110682.45   -177.22599     263043.7  0.040525873 
   20900    312.08066   -111556.51   -110686.73   -131.69691    262926.37  0.040543957 
   21000    314.37538   -111573.23   -110697.04   -232.22508    262781.69  0.040566279 
   21100    310.16695   -111578.88   -110714.43   -24.394461    262601.98  0.040594041 
   21200    306.50896   -111587.64   -110733.38    271.59593    262416.39  0.040622749 
   21300    307.68413   -111604.97   -110747.43   -133.38828    262241.75  0.040649803 
   21400    304.41742   -111608.72   -110760.29    121.21253    262073.87  0.040675842 
   21500    298.57319   -111601.97   -110769.83    69.456815    261899.86  0.040702868 
   21600    300.76614   -111616.44   -110778.18   -48.752949    261658.11  0.040740474 
   21700    288.75444   -111587.49   -110782.71    114.91767    261367.36  0.040785794 
   21800    293.00511    -111600.7   -110784.08   -210.44637    261015.34  0.040840801 
   21900     291.2525   -111594.42   -110782.68    17.218904    260637.72  0.040899971 
   22000    296.30556   -111604.69   -110778.87    -54.69374    260268.97  0.040957919 
   22100    302.08959   -111616.23   -110774.29    61.184256    259900.77  0.041015944 
   22200    299.99822    -111603.5   -110767.38    186.03966    259546.71  0.041071896 
   22300    297.91932    -111589.2   -110758.88     106.4458    259199.23  0.041126956 
   22400    298.15397   -111579.49   -110748.52   -215.85253    258888.63  0.041176297 
   22500    303.35504   -111583.92   -110738.45     73.69479    258574.87  0.041226262 
   22600      314.129   -111604.86   -110729.37    43.160348    258247.19  0.041278572 
   22700    295.97263   -111548.23   -110723.34   -78.791877     257940.9  0.041327589 
   22800    308.78033    -111581.5   -110720.91    237.68149    257670.74  0.041370919 
   22900    309.78208    -111584.5   -110721.12     180.2939    257428.18    0.0414099 
   23000    305.95734   -111578.38   -110725.65   -121.79813    257176.86  0.041450367 
   23100     293.4626   -111551.26   -110733.36   -100.42682    256871.01  0.041499721 
   23200    300.14444   -111580.93   -110744.41    113.33759    256566.24  0.041549019 
   23300     292.7967   -111576.11   -110760.07    130.20625    256258.53  0.041598909 
   23400      294.262   -111598.76   -110778.63    152.86048    255957.42  0.041647847 
   23500    296.14886   -111620.71   -110795.33    542.71828    255671.97  0.041694346 
   23600    293.23837   -111623.53   -110806.26   -16.624504    255418.25  0.041735762 
   23700    295.18484    -111633.3   -110810.61   -34.696722     255184.7   0.04177396 
   23800    293.56254   -111629.59   -110811.41    50.904375    254974.19  0.041808449 
   23900    289.31078   -111615.64   -110809.31   -175.06679    254771.64  0.041841688 
   24000     285.9616   -111603.38   -110806.38    130.34792    254529.45  0.041881501 
   24100    298.44687   -111633.18   -110801.39   -140.43363    254230.89  0.041930685 
   24200    289.92404   -111601.92   -110793.89    73.477674    253900.49   0.04198525 
   24300    297.66949   -111614.86   -110785.24   -106.39998    253581.59   0.04203805 
   24400    299.75349   -111611.91   -110776.48   -100.15698    253271.42  0.042089531 
   24500    295.45395   -111592.48   -110769.03    -258.2894    252949.12   0.04214316 
   24600    296.41709   -111588.14   -110762.01    164.56536    252614.97  0.042198907 
   24700    301.82161   -111597.03   -110755.84    341.52322    252276.71  0.042255487 
   24800    301.14291   -111590.42   -110751.12    130.71563    251947.83  0.042310646 
   24900    310.16728    -111614.1   -110749.65     98.42458    251630.65  0.042363979 
   25000    304.05206   -111597.24   -110749.83   -187.91211    251310.81  0.042417893 
   25100    305.23296   -111599.33   -110748.63   -179.48757    250940.73  0.042480451 
   25200    304.02146   -111596.99   -110749.66    202.74984    250516.21  0.042552437 
   25300    297.34954   -111579.76   -110751.03   -98.670304    250071.08  0.042628181 
   25400    310.28912   -111618.94   -110754.14    329.22328    249595.68  0.042709375 
   25500    294.46316   -111578.91   -110758.22    260.21819    249133.69  0.042788574 
   25600    291.05745   -111573.58   -110762.39     184.8076    248686.92  0.042865445 
   25700    300.94571   -111605.49   -110766.74   -226.36143    248287.21  0.042934452 
   25800     299.7598   -111610.22   -110774.77    139.29611    247915.85  0.042998765 
   25900    301.26967   -111628.77   -110789.11    301.41508    247571.91  0.043058501 
   26000     294.1751   -111629.22   -110809.34   -92.510998    247280.77  0.043109197 
   26100    281.45225   -111614.03    -110829.6   -87.371019    247026.96   0.04315349 
   26200    285.61191   -111638.12   -110842.11    147.87112    246762.74  0.043199697 
   26300    272.53173   -111605.51   -110845.95    11.079125    246478.89  0.043249446 
   26400    285.37657   -111639.44   -110844.08    133.89805    246187.47  0.043300641 
   26500    287.81142   -111640.94   -110838.79   -39.442469    245912.83  0.043349001 
   26600    288.07971   -111632.48   -110829.59     17.42881    245620.91  0.043400521 
   26700     295.0262   -111638.79   -110816.54    322.65229    245346.97  0.043448979 
   26800    289.60714   -111609.93   -110802.77   -46.057975    245084.92  0.043495435 
   26900    301.76313   -111631.14   -110790.11    7.2565034    244820.96  0.043542332 
   27000    291.32659   -111591.88   -110779.94    354.50019    244563.94  0.043588091 
   27100    304.98513   -111622.12   -110772.11    328.06194    244367.06  0.043623208 
   27200    303.40128   -111611.65   -110766.06    9.4250629    244154.18  0.043661245 
   27300    304.60039   -111609.18   -110760.24    285.08764    243937.73  0.043699986 
   27400    299.23183   -111591.01   -110757.04    -59.16403    243724.99   0.04373813 
   27500    296.77812   -111581.86   -110754.72    69.157885    243477.36  0.043782614 
   27600    299.56799   -111586.09   -110751.18    50.017359    243206.74  0.043831332 
   27700    301.33026   -111587.59   -110747.76   -38.624583    242918.41  0.043883357 
   27800    299.02856   -111578.25   -110744.84    127.58332    242652.73  0.043931405 
   27900    304.53004   -111590.62   -110741.87   -101.90674    242411.07  0.043975201 
   28000     301.0505   -111578.54   -110739.49   -530.65944     242177.4  0.044017631 
   28100    312.35635   -111609.38   -110738.82    435.18654    241916.62   0.04406508 
   28200    305.63309    -111590.5   -110738.68   -288.06849    241633.76  0.044116663 
   28300    306.21731   -111595.31   -110741.86    58.345659    241355.81  0.044167469 
   28400    305.62211    -111600.6   -110748.82   -129.67797    241072.41  0.044219392 
   28500    303.93741   -111606.39    -110759.3     200.9321    240802.39  0.044268976 
   28600    299.27289   -111607.84   -110773.75   -90.455202    240563.86  0.044312872 
   28700    297.02702   -111616.56   -110788.73   -205.04661    240313.53  0.044359032 
   28800    289.00819   -111606.48      -110801   -111.97658    240023.75  0.044412586 
   28900    276.96684   -111579.96   -110808.03    159.25958    239711.16  0.044470501 
   29000    287.52473    -111612.9   -110811.55    196.00072    239375.83  0.044532798 
   29100      295.417   -111634.16   -110810.82   -146.87997     239065.4  0.044590624 
   29200    300.90488   -111643.78   -110805.14    129.98619    238790.04  0.044642044 
   29300    291.63717   -111611.01    -110798.2   -315.18592    238489.37  0.044698326 
   29400    286.29104   -111586.37   -110788.46    128.91471    238167.73  0.044758689 
   29500    296.54622   -111604.45   -110777.96    118.36704    237819.14  0.044824294 
   29600    299.44425   -111601.38   -110766.81   -199.16217     237466.5  0.044890859 
   29700    292.66916   -111573.86   -110758.17       21.387    237107.21  0.044958883 
   29800    294.08091   -111570.04   -110750.42    160.82865    236754.45   0.04502587 
   29900    295.72823   -111568.18   -110743.97    286.89877    236434.36  0.045086828 
   30000    306.26573   -111596.15   -110742.57   -39.125206    236163.51  0.045138537 
   30100    305.14209   -111591.99   -110741.54    58.230279    235917.62  0.045185583 
   30200    310.50472   -111607.82   -110742.43     -567.297    235687.38  0.045229724 
   30300    313.16016   -111617.67   -110744.87   -59.583151    235444.64  0.045276355 
   30400     296.3316   -111575.82   -110749.93    75.511972    235226.56  0.045318331 
   30500    302.75348   -111599.59    -110755.8    30.991624       235043  0.045353723 
   30600    289.77011    -111569.1    -110761.5   -241.87255    234883.59  0.045384505 
   30700    303.83984   -111612.92    -110766.1    256.57848    234707.99   0.04541846 
   30800    300.17821   -111605.33   -110768.71    114.98816    234516.05  0.045455632 
   30900    301.48096   -111611.83   -110771.59   -186.71785    234294.73  0.045498571 
   31000    299.84951   -111609.47   -110773.77   -313.52941    234052.95  0.045545572 
   31100    299.89166   -111613.07   -110777.26    412.19977    233799.57  0.045594931 
   31200    297.52954   -111610.05   -110780.82    138.32058    233582.71  0.045637262 
   31300    290.90199   -111595.68   -110784.92   -5.0984538    233401.36  0.045672721 
   31400    293.84943   -111609.97      -110791   -33.452078    233246.19  0.045703107 
   31500    297.97906   -111627.43   -110796.95   -11.649915    233069.39  0.045737776 
   31600     295.0416   -111623.17   -110800.87   -62.710912    232886.72  0.045773651 
   31700    296.68894   -111632.23   -110805.34    104.74145     232709.1  0.045808588 
   31800    294.99863   -111631.84   -110809.66   -160.59287    232528.84    0.0458441 
   31900     279.1715   -111590.77    -110812.7    149.53714    232312.46    0.0458868 
   32000    297.21329   -111639.91   -110811.56   -240.94464    232084.39  0.045931892 
   32100     301.7309   -111647.47   -110806.53    358.25116    231905.41  0.045967342 
   32200    277.61422   -111571.12   -110797.39    105.46523    231795.69    0.0459891 
   32300    289.71637   -111592.64   -110785.19   -209.45874    231723.34   0.04600346 
   32400    293.75008   -111591.13   -110772.43    -8.296006    231628.53   0.04602229 
   32500    312.39131   -111631.16   -110760.51    -369.6862    231547.26  0.046038443 
   32600     300.8381    -111589.6   -110751.15    108.36601    231484.04  0.046051016 
   32700    297.31696   -111574.64   -110746.01    30.854913    231484.44  0.046050937 
   32800    308.86675   -111604.37   -110743.55   -138.62274    231498.32  0.046048176 
   32900    312.17204   -111609.74    -110739.7   -65.251333     231493.9  0.046049055 
   33000    307.12663   -111594.68    -110738.7    81.318482    231479.71  0.046051879 
   33100    306.10139   -111592.86   -110739.74     259.5731    231461.63  0.046055474 
   33200    308.57478   -111602.25   -110742.24   -366.38074    231458.71  0.046056057 
   33300    301.90066    -111591.6   -110750.18    91.563797    231442.13  0.046059355 
   33400    309.04581    -111624.1   -110762.77   -49.302633    231470.44  0.046053722 
   33500    289.89037   -111586.27   -110778.33   -197.42394     231503.3  0.046047185 
   33600    298.31481   -111624.29   -110792.87    132.56002    231501.84  0.046047477 
   33700    284.51122   -111597.11   -110804.17   -235.94828    231482.45  0.046051334 
   33800    296.60509   -111636.22   -110809.57   -157.87439    231457.67  0.046056262 
   33900    300.87595   -111650.16    -110811.6   -167.19522    231414.34  0.046064887 
   34000     282.5936   -111597.73   -110810.13    158.18634     231363.4  0.046075028 
   34100    288.48862   -111610.52   -110806.49    96.175145    231288.86  0.046089879 
   34200    291.88818   -111615.58   -110802.07   -338.95027     231175.2  0.046112539 
   34300    295.45456   -111619.31   -110795.87    335.77377    231007.13  0.046146088 
   34400    304.12883   -111637.78   -110790.15    -198.1905    230846.79  0.046178139 
   34500    292.12107   -111598.85   -110784.69   -39.250376    230690.33  0.046209459 
   34600    296.28071   -111605.24   -110779.49   -192.38109    230493.26  0.046248968 
   34700    294.13483   -111595.04   -110775.27    97.698736    230266.33  0.046294546 
   34800    304.58799   -111620.91      -110772   -417.08931    230033.07   0.04634149 
   34900    297.58209   -111597.26   -110767.88   -263.98641    229786.46  0.046391225 
   35000    299.55327   -111599.03   -110764.16    65.821283    229502.32   0.04644866 
   35100    298.24166    -111592.4   -110761.18   -166.15727    229222.74  0.046505313 
   35200    301.02586      -111597   -110758.02    124.55719    228962.11  0.046558251 
   35300    301.41618   -111595.04   -110754.97    -224.2882    228742.39  0.046602972 
   35400    295.91508   -111579.03   -110754.29    30.559165    228501.14  0.046652175 
   35500    298.80852   -111584.97   -110752.17    124.97152    228256.18  0.046702242 
   35600    284.65864   -111544.52   -110751.16    329.30834    227996.88  0.046755356 
   35700    300.02995   -111584.68   -110748.48    64.456663    227729.19  0.046810316 
   35800    306.52459    -111599.5    -110745.2   -248.44676    227472.13  0.046863216 
   35900    311.01812   -111606.06   -110739.23    81.550319    227236.45   0.04691182 
   36000    308.51159   -111592.97   -110733.13    -154.2016    227001.01  0.046960475 
   36100    301.29165   -111568.23   -110728.51    586.47782    226777.13  0.047006836 
   36200    308.92569   -111586.36   -110725.36   -65.813712    226596.76  0.047044252 
   36300    309.75377   -111588.44   -110725.14   -439.67904    226420.86  0.047080801 
   36400    313.02467   -111599.98   -110727.56    24.677215    226252.44  0.047115847 
   36500    304.31686   -111581.83   -110733.68    20.459015    226134.96  0.047140324 
   36600    300.16726   -111581.16   -110744.58    130.89121    226084.03  0.047150944 
   36700     303.5862   -111603.83   -110757.72   -5.9215425    226034.56  0.047161264 
   36800    303.50509   -111615.74   -110769.86    108.37719     225961.9  0.047176428 
   36900    301.97315   -111623.15   -110781.53    51.549551    225867.88  0.047196065 
   37000    300.56699   -111629.29   -110791.59   -115.90805    225808.78  0.047208418 
   37100    292.11393    -111613.8   -110799.66   -132.15801    225769.83  0.047216562 
   37200    288.13353   -111607.83   -110804.78   -124.25854    225736.95  0.047223441 
   37300    283.69653   -111598.08    -110807.4    71.885128    225683.94  0.047234532 
   37400    281.62208   -111592.53   -110807.63    473.76715    225630.19  0.047245784 
   37500     299.6644   -111640.66   -110805.47   -181.30723    225599.54  0.047252203 
   37600    294.22381   -111620.34   -110800.32   -162.44535    225542.79  0.047264092 
   37700     296.3207    -111619.4   -110793.54    147.40874    225421.44  0.047289537 
   37800    295.35008    -111607.7   -110784.54    106.05899    225263.39  0.047322716 
   37900    297.43845   -111601.37   -110772.39   -158.07701    225087.43  0.047359711 
   38000    302.95366   -111604.51   -110760.16    128.51861    224912.52   0.04739654 
   38100    308.39751   -111607.18   -110747.66   -208.30935    224768.29  0.047426955 
   38200    306.32249   -111591.43   -110737.69   -251.93725    224613.11  0.047459721 
   38300    309.41959   -111593.91   -110731.54   -141.34436    224427.89  0.047498888 
   38400    313.06232   -111601.44   -110728.92   -114.38597    224209.19  0.047545219 
   38500    301.26364   -111568.48   -110728.84   -173.89521    223986.38  0.047592517 
   38600    298.02594   -111561.02    -110730.4    161.20276     223741.5  0.047644604 
   38700    308.52013   -111593.04   -110733.18   -156.92313    223490.74  0.047698063 
   38800    315.94518   -111618.46    -110737.9   -254.29408    223227.65  0.047754279 
   38900    300.38291   -111582.19      -110745    129.59288    222989.58  0.047805262 
   39000    303.48499   -111597.19   -110751.36    395.72865    222801.74  0.047845565 
   39100    296.71414   -111585.44   -110758.48    131.31785    222632.86  0.047881859 
   39200    300.40046   -111601.37   -110764.14   -211.30551    222475.92  0.047915636 
   39300    302.33211   -111609.92    -110767.3    128.88206    222331.78  0.047946701 
   39400    295.68982   -111593.01    -110768.9    -125.8331    222239.51  0.047966609 
   39500    297.98223   -111598.86   -110768.37    155.37164       222163  0.047983127 
   39600    294.27231   -111587.56   -110767.41   -64.489406    222106.97   0.04799523 
   39700    298.06244   -111596.19   -110765.47   -528.48597    222100.35  0.047996662 
   39800    307.53561   -111621.26   -110764.14    522.37686    222103.68  0.047995942 
   39900    296.98345   -111590.56   -110762.85   -258.34075    222130.89  0.047990063 
   40000    296.95035   -111590.38   -110762.76    -218.0204    222159.76  0.047983827 
   40100    300.22456   -111600.84    -110764.1   -83.980804    222154.05   0.04798506 
   40200    297.67102   -111595.11   -110765.49   -308.95813     222138.8  0.047988353 
   40300    304.51661   -111616.73   -110768.03   -26.777257    222082.81  0.048000453 
   40400    293.39858   -111587.38   -110769.66    97.072694    222024.56  0.048013046 
   40500    296.66343   -111597.93   -110771.12   -74.256104    221980.76  0.048022519 
   40600    299.80775   -111607.85   -110772.26    171.49595    221938.55  0.048031653 
   40700    303.24178   -111615.87   -110770.72   -77.224435    221938.81  0.048031595 
   40800    308.24384   -111625.82   -110766.73    216.43608    221952.99  0.048028527 
   40900    308.14521   -111621.64   -110762.82   -319.01243    221968.54  0.048025164 
   41000    306.46017   -111613.19   -110759.07    72.214204    221973.88  0.048024009 
   41100    295.54927   -111579.23   -110755.52     68.24088    221942.82  0.048030728 
   41200    301.89478   -111592.33   -110750.93   -292.96818    221867.93   0.04804694 
   41300    304.48482    -111594.5   -110745.89    461.94211     221767.8  0.048068635 
   41400    304.57381   -111590.93   -110742.07    -112.1203    221695.42  0.048084328 
   41500    303.63345   -111585.18   -110738.93    168.03199    221664.33  0.048091072 
   41600    301.41865   -111577.22   -110737.15   -66.405503    221617.87  0.048101154 
   41700    301.99706   -111577.17   -110735.49    71.248886    221545.52  0.048116864 
   41800    307.43503   -111591.73   -110734.89    -162.3519    221470.54  0.048133154 
   41900    307.68032   -111593.58   -110736.05    -103.0317    221406.84     0.048147 
   42000    305.29594   -111590.44   -110739.56    397.90259     221336.5  0.048162302 
   42100    303.86473   -111595.27   -110748.38   -266.29487    221261.47  0.048178633 
   42200    292.61399   -111576.59   -110761.06    240.86612    221185.22  0.048195242 
   42300    298.60667   -111605.36   -110773.13    -63.07366    221108.41  0.048211986 
   42400    290.04157   -111593.01   -110784.64    279.94412     221031.8  0.048228695 
   42500    291.09639   -111604.14   -110792.83    118.41644    220980.39  0.048239915 
   42600    290.61512   -111607.93   -110797.97    228.54703    220946.28  0.048247363 
   42700    295.92083   -111624.56   -110799.81   -301.01811    220906.38  0.048256077 
   42800    294.23516   -111618.94   -110798.89    528.91575    220849.48  0.048268509 
   42900    283.57904   -111585.15    -110794.8    568.93174       220771  0.048285668 
   43000    281.04513   -111569.96   -110786.67    7.8138965    220661.09  0.048309719 
   43100    292.82986   -111591.21   -110775.08   -170.29339       220507  0.048343479 
   43200    299.82454   -111595.61   -110759.99    67.940763    220348.13  0.048378333 
   43300    300.33839   -111582.71   -110745.65    237.04573    220202.75  0.048410274 
   43400    302.94818    -111579.2   -110734.86   -693.19524    220041.65  0.048445717 
   43500     292.0491   -111543.76    -110729.8   -10.659379    219819.48  0.048494681 
   43600    307.13211   -111583.49   -110727.49   -19.869482    219556.63  0.048552738 
   43700    303.69518   -111574.55   -110728.14   -81.753072    219288.31  0.048612146 
   43800    313.38721   -111604.18   -110730.75    254.76614    219071.74  0.048660203 
   43900    308.84803   -111596.76   -110735.99   -66.490856    218891.73  0.048700221 
   44000    293.81682   -111560.51   -110741.63   -262.23254    218702.36  0.048742389 
   44100    315.66575   -111627.06   -110747.28    24.468538    218464.16  0.048795535 
   44200    293.23471   -111570.64   -110753.38    7.6898268    218248.48  0.048843754 
   44300    299.96892   -111597.18   -110761.15    22.086967    218085.74  0.048880204 
   44400    297.85702      -111598   -110767.85   -139.75304     217942.9  0.048912239 
   44500    305.63324   -111626.52    -110774.7    47.812052    217821.46   0.04893951 
   44600     299.1151   -111614.06   -110780.41   -139.28891    217722.49  0.048961757 
   44700    300.71868   -111625.09   -110786.97    -193.2904    217639.17  0.048980499 
   44800    301.12456   -111631.93   -110792.68    102.07397    217545.44  0.049001603 
   44900    290.96677   -111610.12   -110799.18    263.24618     217444.3  0.049024395 
   45000    284.50569   -111598.13    -110805.2   -308.57742    217380.55  0.049038772 
   45100    299.49318   -111643.53   -110808.83   -33.090386    217349.37  0.049045807 
   45200    290.52396    -111621.3   -110811.59    296.03348    217322.48  0.049051877 
   45300    293.44448   -111630.04    -110812.2    182.47421    217293.81  0.049058348 
   45400    291.81012    -111624.5   -110811.21   -63.224067    217240.39  0.049070412 
   45500    294.54184   -111628.51   -110807.61    100.03212    217187.54  0.049082353 
   45600    291.04185   -111610.63   -110799.48     280.8995    217172.71  0.049085703 
   45700    301.89271   -111629.12   -110787.73   -107.30429    217208.33  0.049077655 
   45800    295.00629   -111596.56   -110774.36     262.2232    217228.42  0.049073115 
   45900    301.25051   -111602.18   -110762.57    379.77513    217203.31   0.04907879 
   46000    297.25929   -111581.09   -110752.62    282.67894    217158.79   0.04908885 
   46100    298.48422   -111575.63   -110743.73    321.20584    217098.34  0.049102519 
   46200     303.1519   -111582.74   -110737.83    33.399087    217055.03  0.049112316 
   46300    310.99844   -111601.49   -110734.72   -219.07119    217006.64  0.049123268 
   46400    311.99183   -111602.28   -110732.74   -550.07872    216946.47  0.049136892 
   46500    298.96412   -111567.92   -110734.69    285.63041    216865.42  0.049155257 
   46600    300.87782   -111577.05   -110738.49   -96.639003    216757.96  0.049179626 
   46700    311.97582    -111615.4    -110745.9   -108.58761    216641.68  0.049206021 
   46800    303.18782   -111599.52   -110754.52   -256.39887    216516.02  0.049234579 
   46900    293.98106   -111586.11   -110766.77    -79.33186    216394.94  0.049262129 
   47000    304.48771   -111628.94   -110780.32    244.34244    216274.24  0.049289621 
   47100    292.78335   -111608.64   -110792.63   -54.073605    216161.35  0.049315363 
   47200    296.12604   -111627.08   -110801.76   -449.17459    216054.23  0.049339813 
   47300    289.13995   -111613.82   -110807.97    261.82535    215953.71   0.04936278 
   47400    295.15347   -111633.12   -110810.51    241.07386    215836.21  0.049389653 
   47500    299.78152   -111646.14   -110810.63   -89.412049    215698.15  0.049421264 
   47600    294.49804   -111630.45   -110809.67      208.705    215548.06  0.049455677 
   47700    300.10368   -111642.42   -110806.02   -196.46331    215406.33  0.049488218 
   47800    283.59491   -111593.11   -110802.71   -34.787173    215243.44  0.049525669 
   47900    300.87283   -111635.92   -110797.37   -225.57118    215069.39  0.049565749 
   48000    304.23633   -111639.82    -110791.9    248.84934       214938  0.049596048 
   48100    295.03885    -111609.7   -110787.41    23.922691    214856.47  0.049614867 
   48200    304.03571      -111629   -110781.63    87.856663     214805.2   0.04962671 
   48300     295.5801   -111601.35   -110777.55    46.106278    214743.74  0.049640913 
   48400    308.13031   -111631.48    -110772.7   -378.34638    214667.93  0.049658445 
   48500    289.07774    -111573.8   -110768.12    93.273119    214568.16  0.049681534 
   48600    300.59604   -111602.49   -110764.72   -41.334902    214460.32  0.049706516 
   48700    295.95631   -111587.17   -110762.32   -341.87955    214342.09  0.049733934 
   48800    308.48705   -111621.22   -110761.45    175.78614    214208.18  0.049765025 
   48900    309.75966   -111626.48   -110763.17    211.61325    214089.57  0.049792596 
   49000    300.42096   -111602.16   -110764.87   -35.236806     213969.4   0.04982056 
   49100    300.52077   -111604.62   -110767.05   -103.06416     213822.9  0.049854694 
   49200    292.96138   -111585.37   -110768.87   -104.77508    213654.81  0.049893918 
   49300    314.77135   -111648.72   -110771.44   -230.75499    213508.65  0.049928072 
   49400    295.54156   -111601.41   -110777.72   -261.12717    213404.02  0.049952552 
   49500     300.5127    -111623.8   -110786.25   -15.690285    213327.49  0.049970473 
   49600    297.49164   -111628.66   -110799.54   -217.55369    213276.22  0.049982486 
   49700    287.85273   -111617.85   -110815.59   -527.22572    213224.67  0.049994568 
   49800    296.34912    -111654.9   -110828.96   -71.660302    213142.03  0.050013953 
   49900    284.16384   -111630.78    -110838.8   -107.65195    213048.16   0.05003599 
   50000    279.12232   -111620.73    -110842.8    16.569417    212963.16   0.05005596 
   50100    288.67841   -111646.16    -110841.6    470.28587    212877.46   0.05007611 
   50200    300.85325   -111675.07   -110836.57   -314.56996     212784.2  0.050098059 
   50300    296.84732   -111655.72   -110828.39   -115.64869    212672.19  0.050124445 
   50400    293.60651   -111635.84   -110817.54   -387.51192    212562.43  0.050150326 
   50500    289.02484   -111611.41   -110805.88    146.68356    212475.35  0.050170879 
   50600    298.51331   -111627.09   -110795.11   -332.89651    212408.93  0.050186568 
   50700    302.96046   -111631.14   -110786.78    333.73106    212322.94  0.050206895 
   50800    305.45782   -111631.46   -110780.13    126.72627    212236.26    0.0502274 
   50900     308.9061   -111636.86   -110775.92     168.9078    212175.81   0.05024171 
   51000    300.49977   -111611.04   -110773.53   -168.59303    212150.83  0.050247625 
   51100    298.35727   -111602.82   -110771.28   -315.48088    212117.02  0.050255633 
   51200      298.282   -111600.18   -110768.85    257.86074    212081.38  0.050264079 
   51300    313.11103   -111640.97   -110768.31    544.17199    212046.67  0.050272308 
   51400    301.41505   -111608.13   -110768.07    314.44401    211999.55  0.050283482 
   51500    306.15839   -111621.03   -110767.75    306.44214     211917.5   0.05030295 
   51600     295.6953   -111591.98   -110767.86    -100.3325     211796.7   0.05033164 
   51700    302.82058   -111613.83   -110769.85     420.4581    211663.12  0.050363405 
   51800    299.45687   -111607.73   -110773.12   -33.496068    211582.47  0.050382602 
   51900    296.59337      -111604   -110777.37     1.548126    211536.31  0.050393597 
   52000    299.02478   -111614.54   -110781.14   -221.92848    211457.09  0.050412475 
   52100    298.50077   -111617.66   -110785.72    219.28164    211362.19  0.050435111 
   52200    299.46114   -111627.21   -110792.59    116.88532    211301.13  0.050449684 
   52300    293.25602   -111619.57   -110802.25    42.927647    211266.17  0.050458033 
   52400    296.68607   -111640.58    -110813.7   -89.364641    211228.27  0.050467087 
   52500    292.16418   -111638.14   -110823.86    79.089441    211153.84  0.050484876 
   52600    282.84133   -111619.73   -110831.44    -305.1448    211022.57  0.050516281 
   52700    292.85197   -111652.21   -110836.01    136.72394    210866.09  0.050553768 
   52800    281.36043   -111621.13   -110836.96    98.079666    210723.84  0.050587893 
   52900    284.41876   -111627.61   -110834.92   -204.71943    210613.32  0.050614441 
   53000    283.58838   -111620.06   -110829.69    71.167958    210485.69  0.050645132 
   53100    284.83421   -111612.84   -110818.99    213.99879    210313.15   0.05068668 
   53200    296.83827   -111629.94   -110802.64    366.02007    210101.07  0.050737843 
   53300    314.24358   -111661.87   -110786.05     -137.555    209870.32  0.050793629 
   53400    297.45678   -111603.64   -110774.61    202.84579    209680.99  0.050839494 
   53500    301.42383   -111606.79   -110766.71    394.00082    209545.24  0.050872429 
   53600      294.592   -111584.14    -110763.1    187.61058    209443.84  0.050897059 
   53700     303.0158   -111605.06   -110760.54    65.773858    209341.37  0.050921971 
   53800    307.39165   -111616.76   -110760.04    371.90369    209249.08  0.050944431 
   53900      310.227   -111624.03   -110759.41   -341.53909    209153.73  0.050967657 
   54000    305.67815   -111611.36   -110759.41   -443.16004    209047.12   0.05099365 
   54100    307.72812   -111618.85   -110761.19    12.191251     208950.6  0.051017203 
   54200    304.44197   -111613.18   -110764.68   -8.6762086    208853.98  0.051040805 
   54300     299.1501   -111604.15    -110770.4   -329.37092    208750.68  0.051066062 
   54400    297.24314   -111605.76   -110777.33   -212.52417    208629.46  0.051095733 
   54500    291.11006   -111596.29   -110784.95   -74.515877    208505.61  0.051126084 
   54600    293.99585   -111611.58    -110792.2   -221.56321    208410.12   0.05114951 
   54700     293.5153   -111618.75    -110800.7   -324.34043    208340.76  0.051166537 
   54800    287.38305   -111611.14   -110810.18     -476.188     208283.5  0.051180604 
   54900    286.84719   -111619.63   -110820.17      194.129    208170.14  0.051208474 
   55000     284.6727   -111623.08   -110829.68    72.857331    207989.97  0.051252834 
   55100    291.55969   -111648.81   -110836.21   -293.52501    207789.09  0.051302381 
   55200    292.56958   -111654.28   -110838.87    553.76735    207603.07  0.051348351 
   55300    280.97473   -111621.69   -110838.59    56.739423    207466.98  0.051382033 
   55400    279.97318   -111613.72   -110833.42    571.97109    207321.86  0.051417999 
   55500    280.04458   -111602.04   -110821.54   -494.28585    207125.02  0.051466864 
   55600    304.84401   -111651.74   -110802.12    612.02595    206862.39  0.051532206 
   55700     291.7164   -111594.72   -110781.69    15.761439    206629.34  0.051590328 
   55800    296.33873   -111593.36   -110767.45    299.73235    206414.94  0.051643915 
   55900    310.73958   -111624.36   -110758.31   -84.396827    206213.75  0.051694299 
   56000    305.36849   -111603.61   -110752.54     226.3712    205986.43  0.051751347 
   56100    299.62383   -111583.89   -110748.83   -113.49916    205759.62  0.051808394 
   56200     315.7662    -111626.9   -110746.84    293.65619    205493.24  0.051875554 
   56300    302.44409   -111589.14   -110746.22   -517.63765    205221.94  0.051944132 
   56400     307.6524   -111606.75    -110749.3    12.686718    204960.45  0.052010402 
   56500    305.54736   -111606.05   -110754.47    48.329547    204716.96  0.052072262 
   56600    312.56097   -111632.54   -110761.41    135.54996    204482.91  0.052131863 
   56700     305.7826   -111623.75   -110771.51    -141.9584    204268.06  0.052186697 
   56800     298.0478   -111614.03   -110783.35    -337.0351    204103.96  0.052228655 
   56900    297.73965   -111624.09   -110794.27   -147.71388    203963.47   0.05226463 
   57000    299.05688   -111637.28   -110803.79     355.1574    203822.29  0.052300833 
   57100    284.42425   -111602.51    -110809.8     305.9046    203696.62  0.052333098 
   57200    305.52518   -111665.92    -110814.4    403.52311    203624.56  0.052351619 
   57300    290.45493   -111625.28   -110815.77    -528.6016    203584.61  0.052361893 
   57400    281.94144   -111599.32   -110813.53   -38.850617    203563.61  0.052367293 
   57500    289.99458    -111615.8   -110807.57   -61.864764     203547.4  0.052371464 
   57600    294.70196   -111620.23   -110798.88   -599.74619    203525.54  0.052377088 
   57700    294.49359   -111608.77      -110788    163.27531    203465.91  0.052392439 
   57800    290.59121   -111586.65   -110776.75    298.32916    203396.31  0.052410368 
   57900     295.2991   -111589.64   -110766.62    562.40228    203331.08  0.052427181 
   58000    313.18416   -111633.21   -110760.34    -53.80205    203257.23  0.052446229 
   58100    296.26045   -111582.57   -110756.88   -365.23176    203165.46   0.05246992 
   58200    296.87929   -111581.63   -110754.21    148.29381    203040.44  0.052502228 
   58300    298.99882    -111585.9   -110752.57    126.11698    202885.07  0.052542433 
   58400    300.28611   -111588.31    -110751.4   -56.213999    202719.03   0.05258547 
   58500    298.84735   -111581.98   -110749.08    85.327958    202550.47   0.05262923 
   58600    298.33294   -111579.38   -110747.91   -188.08178    202349.71  0.052681446 
   58700     302.2115    -111589.7   -110747.42   -476.47389    202104.12  0.052745462 
   58800    299.68551   -111581.85   -110746.61    4.3562362    201826.12  0.052818115 
   58900      304.527   -111593.63   -110744.89   -77.702319    201558.73  0.052888184 
   59000    301.04343   -111582.76   -110743.74   -230.22907    201299.67  0.052956248 
   59100    291.16833   -111553.65   -110742.15   -208.90215     200994.5  0.053036651 
   59200    304.99532   -111592.05   -110742.01   0.79933833    200647.46  0.053128385 
   59300    308.04323   -111602.15   -110743.61    193.96209    200281.69   0.05322541 
   59400    305.10004   -111597.98   -110747.65   -10.414781    199907.42   0.05332506 
   59500    296.92738   -111582.21   -110754.66   -169.53949    199544.38  0.053422079 
   59600    300.15583   -111600.58   -110764.03   -186.01051    199182.22  0.053519211 
   59700    307.69575   -111631.51   -110773.95    320.30508    198813.88  0.053618366 
   59800    298.19458   -111617.71   -110786.62    325.28483    198469.03  0.053711531 
   59900    291.71505    -111611.1   -110798.07    208.49248    198145.71  0.053799172 
   60000    288.25426   -111611.08    -110807.7   -47.130939    197815.19  0.053889064 
   60100    293.48351   -111633.71   -110815.76    292.11183    197486.87  0.053978653 
   60200    296.63856   -111646.86   -110820.11    64.340823    197161.22  0.054067811 
   60300    298.67444   -111653.28   -110820.85    214.40913    196866.48  0.054148758 
   60400    287.73763   -111621.72   -110819.77   -313.01126    196556.01  0.054234288 
   60500    287.93667   -111618.43   -110815.93     76.77632     196212.4  0.054329265 
   60600    286.98174   -111608.87   -110809.03   -56.202582    195889.24  0.054418891 
   60700    297.70707   -111627.94   -110798.21    472.02402    195608.45   0.05449701 
   60800    298.97104   -111616.41   -110783.16    191.90394    195397.32  0.054555894 
   60900    297.27117   -111594.39   -110765.88    4.7887379    195183.03  0.054615791 
   61000    308.10097   -111608.44   -110749.74    116.72972    194938.74  0.054684234 
   61100     307.7337    -111596.7   -110739.03   -5.0753697    194701.72  0.054750802 
   61200    304.02847   -111583.19   -110735.85   -73.186353     194504.7   0.05480626 
   61300    315.94599   -111615.17   -110734.61    -399.5777    194333.28  0.054854606 
   61400     302.9161   -111580.46   -110736.21    10.868419    194173.06  0.054899868 
   61500    308.80314   -111599.66   -110739.01    417.39914    193990.91  0.054951418 
   61600    300.82917   -111582.06   -110743.63    163.37354    193818.94  0.055000174 
   61700    305.54666    -111601.1   -110749.53    163.45905    193681.57  0.055039184 
   61800    298.89193   -111590.49   -110757.46   -119.03536    193565.46  0.055072197 
   61900    299.13099   -111599.59   -110765.89   -343.50768    193446.04  0.055106195 
   62000    295.88589   -111600.18   -110775.53   -130.87918    193284.03  0.055152386 
   62100    295.42397   -111605.41   -110782.04    109.24331    193082.72  0.055209889 
   62200    291.55339   -111599.36   -110786.78    25.089666    192886.99  0.055265912 
   62300    284.54318   -111582.34    -110789.3    112.63291    192743.06  0.055307183 
   62400    299.79808    -111626.6   -110791.05   -68.890389    192646.31  0.055334957 
   62500    307.53207   -111647.17   -110790.06    44.013981     192547.9  0.055363239 
   62600    282.36325   -111577.98   -110791.02   -232.42841    192418.78  0.055400389 
   62700    300.72937      -111628   -110789.85   -385.68393    192247.86  0.055449645 
   62800    302.45757   -111629.09   -110786.13    708.19765    192036.18  0.055510766 
   62900    298.93497    -111612.3   -110779.15   -166.49083    191801.93  0.055578562 
   63000    302.80791   -111611.01   -110767.06   -83.186115    191550.72  0.055651451 
   63100    301.80553   -111593.58   -110752.43    302.44486    191292.22  0.055726653 
   63200    305.77176   -111589.42   -110737.22    77.280826    191028.04  0.055803722 
   63300    308.09148   -111584.18   -110725.51   -129.72624    190757.18  0.055882959 
   63400    310.02777   -111582.61   -110718.55    -160.4802    190477.96  0.055964876 
   63500    316.43065   -111595.73   -110713.82    136.55739    190198.21   0.05604719 
   63600     303.9161   -111560.54   -110713.51   -207.34942    189926.43  0.056127394 
   63700     304.1271   -111563.15   -110715.53   -129.29567    189673.16   0.05620234 
   63800    306.24727   -111573.75   -110720.22    34.307414    189430.33  0.056274385 
   63900    311.41805   -111595.89   -110727.95    152.16769    189169.47  0.056351986 
   64000    293.23372   -111553.71   -110736.45   -21.655616    188902.76  0.056431549 
   64100    297.10184   -111575.87   -110747.83    84.100099    188623.05  0.056515232 
   64200    301.87006   -111601.41   -110760.08    42.235679    188342.43  0.056599435 
   64300    292.74242   -111587.82   -110771.93   -40.963999     188075.7  0.056679706 
   64400    288.40814   -111585.99   -110782.18    190.56303    187809.01  0.056760192 
   64500    297.27642   -111616.94   -110788.42   -153.61586    187548.07  0.056839165 
   64600     299.4812   -111626.67      -110792    469.59999    187323.02  0.056907451 
   64700     283.1304   -111581.42   -110792.32   -646.84815    187129.05  0.056966438 
   64800    306.12853   -111643.53   -110790.33   -21.340057    186916.37  0.057031256 
   64900    298.38841   -111620.99   -110789.36   -236.64781    186695.46  0.057098739 
   65000     295.9004   -111612.83   -110788.13   -32.417157    186473.18  0.057166801 
   65100    296.50304   -111614.44   -110788.07   -100.38118     186234.2   0.05724016 
   65200    306.12834   -111640.63   -110787.43    155.31932    185975.27  0.057319855 
   65300    290.18935   -111595.03   -110786.26   -129.29108     185763.6  0.057385168 
   65400    292.39104   -111599.59   -110784.68   -353.99023    185602.17   0.05743508 
   65500    287.56694   -111584.04   -110782.57   -54.938048    185449.77  0.057482277 
   65600     295.0537    -111600.7   -110778.37    386.70968    185313.05  0.057524687 
   65700    295.24232   -111598.16   -110775.31    246.33703     185206.5  0.057557783 
   65800    306.32721   -111624.54   -110770.79    507.84053    185114.74  0.057586312 
   65900    302.05287   -111607.11   -110765.27    39.587637    185028.59  0.057613126 
   66000    298.11933   -111590.71   -110759.83    377.46414    184954.09  0.057636331 
   66100    301.14256   -111592.09   -110752.78    -322.1894    184892.22   0.05765562 
   66200    314.60344   -111624.71   -110747.89   -340.55532    184819.24  0.057678387 
   66300    312.33395   -111615.58   -110745.08    128.32968    184729.03  0.057706553 
   66400    299.65262   -111577.11   -110741.97   -420.14966    184621.47  0.057740173 
   66500    297.84118   -111570.55   -110740.45    105.81698     184478.1  0.057785045 
   66600     311.0192   -111607.69   -110740.86    168.85511     184305.6   0.05783913 
   66700    298.35229   -111576.99   -110745.47   -440.48628    184135.53  0.057892551 
   66800    301.34775   -111591.52   -110751.65   -228.36183    183970.07  0.057944618 
   66900    304.48771   -111607.83   -110759.21    -16.46235    183774.51  0.058006278 
   67000    298.42462   -111601.16   -110769.43   -393.71158    183547.71  0.058077953 
   67100      293.677   -111598.42   -110779.93    422.37438    183311.87  0.058152673 
   67200    298.57373   -111620.73   -110788.59    467.57261    183082.56  0.058225509 
   67300    289.59169   -111602.69   -110795.58   -118.54517     182859.7  0.058296473 
   67400    289.63193   -111606.12    -110798.9    335.26126    182656.76  0.058361243 
   67500    293.87763   -111618.32   -110799.26   -69.505131    182473.59  0.058419827 
   67600    303.01888   -111642.32   -110797.78    847.89272     182288.7   0.05847908 
   67700    303.47547   -111640.29   -110794.49   -59.767976    182121.89  0.058532643 
   67800    290.96181   -111600.43   -110789.51   -190.93068    181981.23  0.058577882 
   67900    290.67484   -111591.86   -110781.74     132.7154     181847.1  0.058621089 
   68000      299.237    -111605.8   -110771.81   -106.91404    181713.97  0.058664038 
   68100    308.77633   -111618.57   -110757.99   -390.93274    181575.76  0.058708693 
   68200      309.093   -111606.87   -110745.41   -476.41709    181436.92  0.058753617 
   68300    298.93635   -111566.88   -110733.73   -282.66253    181300.52  0.058797819 
   68400    309.37978   -111587.36    -110725.1    35.924819     181174.3  0.058838782 
   68500    304.48068   -111567.59   -110718.98    59.695027    181066.92  0.058873678 
   68600    311.42445    -111583.7   -110715.74    195.79743     180974.5  0.058903741 
   68700    301.17907   -111556.66   -110717.26   -535.82025    180905.18  0.058926313 
   68800    307.80043   -111577.31   -110719.46    172.70507    180837.82  0.058948264 
   68900    315.28617   -111602.36   -110723.64    76.557311    180782.57  0.058966278 
   69000    303.61416   -111576.81   -110730.62   -150.41814     180733.7  0.058982224 
   69100    307.70191   -111594.53   -110736.95   -2.3345265    180685.45  0.058997974 
   69200    311.41593   -111612.81   -110744.87   -17.552963    180620.34  0.059019242 
   69300    304.04505   -111598.09    -110750.7   -128.96048    180531.87  0.059048163 
   69400    303.59424   -111600.37   -110754.24   -521.82977    180418.12  0.059085393 
   69500    307.09695   -111613.13   -110757.23     511.4525    180283.33  0.059129567 
   69600    312.82239    -111630.4   -110758.54    485.89132    180171.77  0.059166179 
   69700    292.08576   -111573.55   -110759.49   -303.20031    180091.89  0.059192425 
   69800    305.87268   -111613.33   -110760.84    39.791611    179994.77  0.059224362 
   69900    309.17436   -111624.51   -110762.83   -25.460203    179874.24  0.059264047 
   70000    303.35098   -111609.78   -110764.33    118.52307    179742.08  0.059307621 
   70100    296.09508   -111590.78   -110765.55   -154.57337    179596.46  0.059355711 
   70200     303.8422   -111613.57   -110766.74   -123.15446    179439.71  0.059407559 
   70300    294.18329   -111589.17   -110769.26   -191.90961    179264.05  0.059465772 
   70400    299.02834    -111605.2   -110771.79   -550.00692    179045.05   0.05953851 
   70500     297.1352   -111602.92   -110774.79   -194.28738    178824.96  0.059611788 
   70600    306.36222   -111630.74   -110776.89    522.97612    178615.41  0.059681724 
   70700    302.34993   -111621.87   -110779.21    75.642124    178447.94  0.059737734 
   70800     299.6755   -111616.26   -110781.05   -399.54838    178279.43  0.059794197 
   70900    292.76285   -111599.47   -110783.52    98.495998    178082.13  0.059860445 
   71000    296.78951   -111614.11   -110786.95     33.55528    177867.14  0.059932798 
   71100    297.62746   -111619.07   -110789.56   -658.24337    177612.41  0.060018753 
   71200    297.63568   -111621.59   -110792.06    344.46108    177339.19  0.060111222 
   71300    307.64067   -111650.78   -110793.37   -183.88981    177103.27  0.060191296 
   71400    296.34911   -111620.92   -110794.98     16.14123    176916.89  0.060254705 
   71500    287.96314   -111598.31   -110795.74    281.38218    176770.71  0.060304533 
   71600    293.80446   -111614.93   -110796.08    152.71743    176640.62  0.060348948 
   71700    301.66386   -111635.89   -110795.14    161.81142     176528.1  0.060387415 
   71800    301.43213   -111635.66   -110795.55     -44.9453    176414.52  0.060426293 
   71900    291.97329   -111609.42   -110795.67     459.9079    176279.93  0.060472429 
   72000    296.59548   -111620.05   -110793.42   -94.550266    176134.81  0.060522253 
   72100    298.91488   -111621.52   -110788.43    185.42832    175958.47  0.060582906 
   72200    306.21273    -111635.6   -110782.17   -360.16374    175784.43  0.060642887 
   72300    299.37281   -111608.87    -110774.5    128.37313    175635.08  0.060694454 
   72400    308.60019   -111625.32   -110765.23   -211.56492    175522.28  0.060733459 
   72500    309.12355   -111617.49   -110755.95   -132.39254    175424.63  0.060767268 
   72600    305.81743   -111599.57   -110747.24   -320.27174     175324.5  0.060801974 
   72700    305.80085   -111591.78    -110739.5    321.52496    175233.72   0.06083347 
   72800    314.41715   -111610.37   -110734.07    126.03777    175167.71  0.060856395 
   72900    313.01251   -111605.09   -110732.71   -351.30531     175098.6  0.060880414 
   73000    303.85363   -111581.03   -110734.17   -210.69845    175028.56  0.060904775 
   73100    309.73693   -111603.82   -110740.56     -315.582    174956.92  0.060929714 
   73200     304.2042   -111598.51   -110750.68    53.439231    174872.41  0.060959161 
   73300    303.83321   -111612.92   -110766.12    234.58998    174798.61  0.060984896 
   73400    299.84169   -111620.28    -110784.6    59.598295     174732.9  0.061007833 
   73500    302.13643   -111641.72   -110799.64   -45.102154    174665.99  0.061031202 
   73600    297.71241   -111638.78   -110809.04    747.26139     174623.5  0.061046051 
   73700    287.80641   -111616.94    -110814.8   -243.32684    174588.75  0.061058202 
   73800    289.92591   -111624.37   -110816.33    198.98493    174501.38  0.061088774 
   73900    292.75941   -111630.58   -110814.64   -115.22262    174373.65  0.061133524 
   74000    301.56105   -111652.13   -110811.66    20.475775    174216.58  0.061188638 
   74100     296.2663   -111633.71      -110808    382.53229       174051   0.06124685 
   74200    300.96182   -111641.05   -110802.25    410.16466    173876.66  0.061308258 
   74300    302.47038    -111637.9    -110794.9    460.09196     173744.4  0.061354931 
   74400    299.31466   -111622.65   -110788.45   -678.71921    173615.89  0.061400346 
   74500    303.55267    -111626.2   -110780.18    207.90423    173469.65  0.061452108 
   74600     303.8683   -111619.38   -110772.48    408.89967    173365.64  0.061488975 
   74700    306.28437   -111620.22   -110766.59   -393.47701    173304.49  0.061510671 
   74800    301.94364   -111603.11   -110761.58   -232.39422    173220.95  0.061540336 
   74900    305.55875   -111608.26   -110756.65   -90.821768    173117.75  0.061577022 
   75000    306.87688   -111606.58    -110751.3   -353.52416    172980.55  0.061625861 
   75100    308.66809   -111606.16   -110745.88    20.571958    172842.35  0.061675135 
   75200    310.71842   -111600.95   -110734.96   -47.317083     172710.7  0.061722146 
   75300    314.09467   -111594.35   -110718.95    248.04639    172618.69  0.061755046 
   75400    313.15968   -111575.82   -110703.03    710.54332    172544.49  0.061781605 
   75500    310.33039   -111555.15   -110690.24   -65.928351    172459.45  0.061812068 
   75600    317.60562   -111565.05   -110679.86    505.84922     172368.6  0.061844647 
   75700    317.64591      -111561    -110675.7   -85.530677    172282.14  0.061875684 
   75800    324.65496    -111581.2   -110676.37    721.68413    172196.56  0.061906435 
   75900    315.61803    -111562.5   -110682.86    264.23057    172135.86  0.061928266 
   76000    304.50318   -111544.81   -110696.15   -55.158705    172118.95  0.061934349 
   76100     299.4257    -111547.5   -110712.99   -163.42492    172096.47  0.061942442 
   76200    307.01802   -111583.77   -110728.09   -39.424517    172030.85  0.061966069 
   76300     308.7373   -111599.24   -110738.77   -122.17025    171938.53   0.06199934 
   76400    313.54094   -111621.36   -110747.51    -53.96714    171840.66  0.062034651 
   76500    295.35374   -111577.38   -110754.21   -382.32247     171757.1  0.062064831 
   76600    304.51545   -111609.26   -110760.55    21.182423    171676.28  0.062094047 
   76700    290.03036   -111574.57   -110766.24    233.86971       171587  0.062126358 
   76800    307.84079   -111629.44   -110771.47    185.77319    171513.06   0.06215314 
   76900    314.42876   -111653.16   -110776.83    300.16006    171470.82  0.062168452 
   77000    298.68911   -111614.33   -110781.87   -5.1529532    171471.28  0.062168286 
   77100    297.55473   -111614.96   -110785.66    194.18585    171514.72  0.062152539 
   77200    296.10993   -111615.29   -110790.01    134.01755    171564.73  0.062134424 
   77300    294.72407   -111616.23   -110794.82   -188.65347    171611.96  0.062117324 
   77400    293.54241    -111616.9   -110798.78    338.08899    171623.21  0.062113252 
   77500    301.26663   -111641.73   -110802.08    224.09223    171592.12  0.062124506 
   77600    305.17844   -111655.91   -110805.36    60.381778    171541.19   0.06214295 
   77700    295.04993   -111632.46   -110810.14    143.97202    171523.47  0.062149368 
   77800    285.45928    -111609.7   -110814.11   -28.388936     171552.7   0.06213878 
   77900    286.73252   -111616.56   -110817.42   -421.51165    171588.17  0.062125935 
   78000    302.84019   -111661.93    -110817.9    132.39639    171612.25  0.062117217 
   78100    290.55749   -111626.14   -110816.34   -289.82122     171633.6  0.062109491 
   78200    291.22275   -111625.01   -110813.35   -53.840367    171647.42  0.062104488 
   78300    297.01414   -111635.64   -110807.85    84.171391    171642.72  0.062106189 
   78400    294.51927   -111621.37   -110800.53   -28.817021    171609.03  0.062118382 
   78500    306.46263   -111644.38   -110790.25    36.289043     171554.9  0.062137981 
   78600    305.78574   -111632.37   -110780.13   -98.510119    171516.78  0.062151793 
   78700    304.05608   -111616.42      -110769    59.529598    171483.01  0.062164031 
   78800    296.51701   -111586.22   -110759.81   -286.85473    171426.53  0.062184512 
   78900    305.18373   -111600.52   -110749.95     299.6425    171322.33  0.062222336 
   79000    302.69971   -111585.76   -110742.12   -517.32251    171216.44  0.062260817 
   79100       311.25    -111602.9   -110735.43    304.80938    171120.45  0.062295743 
   79200    300.66762   -111570.05   -110732.07    421.03719    171055.01  0.062319575 
   79300    310.39583   -111595.21   -110730.11    285.16199     171005.6   0.06233758 
   79400    293.19036   -111548.39   -110731.25   -379.31863    170937.88  0.062362276 
   79500    312.09876   -111603.51   -110733.67   -244.58823    170853.05  0.062393241 
   79600     319.3449   -111631.23    -110741.2   -51.642017    170765.17  0.062425348 
   79700    298.42096   -111585.98   -110754.27    469.68412    170679.74  0.062456596 
   79800    303.27476   -111616.47   -110771.23   -76.113285    170589.29  0.062489709 
   79900    301.59534   -111629.88   -110789.31    446.40425    170490.84  0.062525795 
   80000    297.65707   -111631.95   -110802.36   -18.298661    170421.95  0.062551071 
   80100    287.18483   -111609.77   -110809.37    387.86304    170371.74  0.062569505 
   80200     287.2526   -111613.68   -110813.09   -17.878628    170336.08  0.062582604 
   80300    297.08012   -111641.05   -110813.07   -134.69793    170309.67   0.06259231 
   80400    291.00597   -111622.61   -110811.56   -88.613897    170306.15  0.062593602 
   80500    299.14698   -111641.07   -110807.33   -288.33359    170295.15  0.062597643 
   80600    291.19725   -111613.69   -110802.11    389.74045    170255.31  0.062612292 
   80700    289.52565   -111602.53   -110795.61   -579.28413    170218.34  0.062625891 
   80800    302.91982   -111633.55   -110789.29    23.920225    170145.25  0.062652795 
   80900    308.74853   -111642.61   -110782.11    246.63881    170083.35  0.062675596 
   81000    297.06098   -111602.89   -110774.96    380.61145    170058.52  0.062684747 
   81100    299.63309   -111603.04   -110767.95   -80.723199    170062.32  0.062683345 
   81200    295.87175   -111587.01    -110762.4    -567.6997    170031.67  0.062694647 
   81300    305.16973   -111608.37   -110757.85    109.76736    169962.28  0.062720243 
   81400     312.3175   -111626.79   -110756.35     -307.898    169895.43  0.062744923 
   81500    303.18342   -111602.45   -110757.46    175.50216    169856.45  0.062759322 
   81600    304.75261   -111612.75   -110763.39    183.78028    169858.76  0.062758465 
   81700    309.35849   -111638.96   -110776.76    341.40991    169900.35  0.062743106 
   81800    302.95972   -111642.36      -110798   -182.90998    169966.96  0.062718516 
   81900    305.30163   -111671.39    -110820.5    630.86518    170040.22  0.062691492 
   82000    296.06946   -111659.72   -110834.56    193.71802    170113.43  0.062664514 
   82100    293.84074    -111659.2   -110840.24    309.44794    170183.98  0.062638537 
   82200    288.43161   -111645.74   -110841.87   -265.19038    170264.42  0.062608942 
   82300    294.54341   -111660.39   -110839.48   -67.222655    170348.31  0.062578109 
   82400    296.83204   -111662.36   -110835.07    300.85962    170437.33  0.062545427 
   82500    282.41802   -111615.13   -110828.02   -491.95139    170521.44  0.062514575 
   82600    295.58115   -111641.57   -110817.77   -410.28532    170583.52  0.062491823 
   82700    290.85057   -111616.74   -110806.12   -410.92452    170618.25  0.062479104 
   82800    295.58478   -111615.99   -110792.17     567.3518     170637.9  0.062471911 
   82900    298.82935   -111615.42   -110782.56   -84.685892    170671.14  0.062459742 
   83000    296.78506   -111600.66    -110773.5   -256.68251    170707.16  0.062446561 
   83100    310.33183   -111631.94   -110767.03   -76.345033    170741.41  0.062434036 
   83200    305.20949   -111612.01   -110761.38   -6.8725451    170777.53   0.06242083 
   83300    299.12676   -111591.23   -110757.55   -334.44434    170821.01  0.062404944 
   83400    302.01357   -111596.92   -110755.19   -56.855401     170845.5  0.062395996 
   83500    293.40906   -111571.31   -110753.56   -541.16549    170859.85  0.062390756 
   83600    298.00124   -111583.54   -110752.99    279.30197    170846.83   0.06239551 
   83700    304.06756   -111598.76   -110751.31   -374.94075    170827.64  0.062402521 
   83800     300.9768   -111588.47   -110749.63    133.99163    170796.74  0.062413811 
   83900    305.89601   -111599.01   -110746.46   -134.37227    170759.53  0.062427411 
   84000    317.60271   -111628.35   -110743.18   -284.22117    170697.47  0.062450106 
   84100    309.05673   -111598.83   -110737.47   -160.37023    170617.51  0.062479376 
   84200    313.84285   -111604.17   -110729.47    180.41431    170563.91  0.062499008 
   84300    306.60541    -111575.1   -110720.57    163.48533    170506.23  0.062520151 
   84400    308.52437   -111571.63   -110711.76    59.090521     170433.6  0.062546795 
   84500    293.46712   -111523.09   -110705.18    412.66277       170364  0.062572348 
   84600    314.75485   -111576.51   -110699.27   -426.23287    170311.47  0.062591648 
   84700    315.28456   -111577.28   -110698.57    798.53127    170246.87  0.062615398 
   84800    318.86342   -111590.79    -110702.1   -339.79054    170218.75   0.06262574 
   84900    324.70991   -111619.07   -110714.08   -173.36341    170204.64  0.062630932 
   85000    304.94611   -111581.86   -110731.96    508.90259    170194.53  0.062634655 
   85100    292.24677   -111563.79   -110749.28   -114.00985    170190.87  0.062636001 
   85200    291.72811   -111575.17   -110762.11   -243.79113    170186.43  0.062637636 
   85300    296.96309   -111599.24   -110771.58   -314.80138    170179.52  0.062640177 
   85400    303.17789   -111623.98   -110779.01   -193.90602     170175.7  0.062641583 
   85500    294.87754   -111605.69   -110783.85   -259.25592    170175.78  0.062641556 
   85600    290.10185   -111596.96   -110788.43    2.7571749    170173.41  0.062642426 
   85700    284.05253   -111581.44   -110789.77   -110.77133    170152.16  0.062650251 
   85800    302.80187   -111633.87   -110789.94   -252.57122    170112.16  0.062664983 
   85900    299.88621   -111625.81   -110790.01    309.14918    170058.13  0.062684889 
   86000    303.09401    -111634.3   -110789.56   -35.311372    170006.69  0.062703857 
   86100     300.6042   -111627.38   -110789.58   -9.2001916    169947.84  0.062725573 
   86200    310.80879   -111653.84    -110787.6   -357.18302    169892.92  0.062745849 
   86300    296.56258   -111611.41   -110784.88   -102.25569    169843.31  0.062764176 
   86400    302.48188   -111623.75   -110780.72   -147.31315    169800.03  0.062780172 
   86500      299.417   -111608.65   -110774.16   -31.766742    169741.47  0.062801833 
   86600     299.4822   -111600.24   -110765.56    29.352949    169675.88  0.062826109 
   86700    299.98655   -111592.16   -110756.08     138.7963    169613.62  0.062849172 
   86800    310.31561   -111612.35   -110747.48   -59.742809    169541.81  0.062875791 
   86900    314.15313    -111615.1   -110739.54   -881.43676    169460.69  0.062905888 
   87000    303.64986   -111580.66   -110734.37   -196.34642    169356.22  0.062944694 
   87100    307.76754   -111588.83   -110731.07    481.85853    169248.18  0.062984874 
   87200    309.32982   -111591.56   -110729.44    22.287119    169160.49  0.063017525 
   87300    304.26658   -111577.21   -110729.21    361.55439    169088.61  0.063044312 
   87400    297.53883   -111561.96    -110732.7   -463.55895    169035.34  0.063064181 
   87500     308.3697   -111599.59   -110740.14   -293.49327    168964.26  0.063090711 
   87600    298.29694   -111583.07    -110751.7   -3.2328802    168860.74   0.06312939 
   87700    302.87747   -111609.33    -110765.2   -202.31779     168773.3  0.063162096 
   87800     295.0489   -111601.56   -110779.24   -464.84395    168699.61  0.063189686 
   87900    291.51694   -111604.46   -110791.98   -375.98667    168626.41  0.063217115 
   88000    298.79376   -111633.49   -110800.74    42.479137    168541.86  0.063248829 
   88100    304.33853   -111655.42   -110807.21    262.12876    168479.15  0.063272372 
   88200    295.21536   -111635.69    -110812.9     106.9294    168440.48  0.063286899 
   88300    292.59567   -111631.22   -110815.74    72.408286    168381.81  0.063308947 
   88400    301.98061   -111657.52   -110815.88   -104.63663    168328.51  0.063328995 
   88500    297.84449   -111644.39   -110814.28   -12.943332    168270.44   0.06335085 
   88600    295.27125   -111632.96   -110810.02   -265.30423    168223.76  0.063368428 
[...]
  978700    288.02138   -111779.44   -110976.71   -3529.8499    9465.7075    1.1261784 
  978800    294.62456   -111806.97   -110985.84   -7352.1363    9462.5925    1.1265491 
  978900    302.96502   -111838.12   -110993.74   -4245.8089    9460.9138     1.126749 
  979000    290.85595   -111811.56   -111000.92    7184.1571    9459.5676    1.1269094 
  979100    281.48397   -111788.82   -111004.31   -4452.8776    9457.8236    1.1271172 
  979200    289.15627   -111810.96   -111005.06   -7997.6841    9454.4951     1.127514 
  979300    289.22605   -111808.38   -111002.29   -8005.7693    9450.7154    1.1279649 
  979400    291.69089   -111808.11   -110995.15    3149.7221    9447.2545    1.1283781 
  979500    288.86926   -111788.08   -110982.99    376.25674    9443.6161    1.1288129 
  979600    289.63089   -111775.47   -110968.26    7476.7632    9438.2444    1.1294553 
  979700    301.80213   -111793.73   -110952.59   -1420.1888    9432.2163    1.1301772 
  979800    298.77447   -111773.34   -110940.64    1667.1074    9425.7001    1.1309585 
  979900    299.92935   -111769.77   -110933.85   -244.10657    9418.5133    1.1318214 
  980000     308.3826   -111789.07   -110929.59    13673.263    9411.0484    1.1327192 
  980100     309.4436   -111790.26   -110927.82   -6780.3291    9404.3232    1.1335292 
  980200    298.24438    -111759.8   -110928.58    2664.9356    9396.9886     1.134414 
  980300    300.61762   -111766.05   -110928.21    -6601.374    9390.1709    1.1352376 
  980400    303.31445   -111775.56   -110930.21    6878.9256     9384.606    1.1359108 
  980500    300.17481   -111770.64   -110934.04    2737.1132    9380.4467    1.1364145 
  980600    308.48459    -111799.8   -110940.04   -6437.0283    9376.0139    1.1369517 
  980700     297.9505   -111777.31   -110946.91   -3169.6469    9370.1169    1.1376673 
  980800     302.8419    -111799.5   -110955.47    -3517.049    9362.6173    1.1385786 
  980900    305.57138   -111816.19   -110964.54     1451.437    9354.8829    1.1395199 
  981000    297.21918   -111804.68   -110976.32    12150.523     9347.818    1.1403811 
  981100     293.0946   -111802.95   -110986.08   -2188.0615     9342.103    1.1410788 
  981200    300.09012   -111831.75   -110995.38    11232.689    9335.5536    1.1418793 
  981300    289.83912   -111810.82   -111003.02   -5000.2934    9329.5178     1.142618 
  981400    291.85643   -111821.67   -111008.25    3158.7358    9323.8102    1.1433175 
  981500    282.55988   -111799.79   -111012.28     5312.332    9319.5688    1.1438378 
  981600    283.67019   -111805.61   -111015.01   -1569.4332    9315.6167    1.1443231 
  981700    290.34777   -111822.82   -111013.61   -2474.3889    9311.6349    1.1448124 
  981800    294.69955   -111828.73   -111007.38   -1921.9043    9307.9556     1.145265 
  981900    289.92743   -111802.91   -110994.86   -3258.1615    9305.4725    1.1455706 
  982000     304.3136   -111826.29   -110978.15   -1579.5423    9304.2743    1.1457181 
  982100    293.73102   -111781.51   -110962.87    6066.6641    9303.7811    1.1457788 
  982200    307.32379   -111806.47   -110949.94    -3346.334    9304.4736    1.1456935 
  982300    301.76581   -111782.41   -110941.38   -2707.9777     9304.456    1.1456957 
  982400    293.75073   -111751.91   -110933.21    9794.3663    9303.8096    1.1457753 
  982500    296.10206   -111751.03   -110925.77   -10628.931    9302.6315    1.1459204 
  982600    308.33723   -111778.14   -110918.79    3704.5374    9299.9057    1.1462563 
  982700    307.37342    -111769.1   -110912.44   -916.72877    9297.6037    1.1465401 
  982800    315.30134   -111787.73   -110908.97   -84.008219    9297.7082    1.1465272 
  982900     304.8234   -111758.59   -110909.03    1056.4672    9300.3007    1.1462076 
  983000    307.12744   -111766.79   -110910.81    6942.5458    9304.6561    1.1456711 
  983100    310.20473   -111782.23   -110917.67    5271.1415    9309.7757     1.145041 
  983200     302.6312   -111771.29   -110927.84   -2215.9046    9314.2431    1.1444919 
  983300    305.57016   -111792.68   -110941.04    2990.7043    9318.3865     1.143983 
  983400    298.12079   -111786.93   -110956.05    2684.9959    9324.6568    1.1432137 
  983500    294.57272   -111788.21   -110967.22   -5321.6667    9333.2266     1.142164 
  983600    296.18724   -111800.02   -110974.53   -5071.2053    9341.0959    1.1412018 
  983700    294.48451   -111800.79   -110980.05    2965.4988    9347.4865    1.1404216 
  983800    289.06009   -111787.87   -110982.24   -8688.9477    9353.6798    1.1396665 
  983900    298.90016   -111815.07   -110982.02    5170.1898    9360.8697    1.1387911 
  984000    298.56886   -111811.79   -110979.66   -502.22952    9369.8841    1.1376955 
  984100    294.70129   -111797.12   -110975.77    1926.6738    9380.3054    1.1364316 
  984200     295.7038   -111795.05   -110970.91    -8829.884    9390.8249    1.1351586 
  984300    304.56735   -111814.95   -110966.11   -1584.3323    9399.6584    1.1340918 
  984400    292.54393   -111777.68   -110962.35    3547.2045    9408.1631    1.1330666 
  984500    298.21856   -111788.49   -110957.34   -5438.3626    9416.3606    1.1320802 
  984600    295.59807   -111777.71   -110953.86   -504.96078     9424.591    1.1310916 
  984700    305.55218   -111802.96   -110951.37    9415.1438    9433.1509    1.1300652 
  984800     295.8961   -111774.16   -110949.48    1351.7676    9442.0132    1.1290045 
  984900    296.30595   -111772.02    -110946.2    945.90963    9449.2322     1.128142 
  985000    297.09795   -111770.56   -110942.53   -4345.7289    9454.4284    1.1275219 
  985100    305.47398   -111790.86   -110939.48    8377.7234    9458.9123    1.1269874 
  985200    301.66005   -111776.05   -110935.31    5126.3733    9464.0271    1.1263784 
  985300    298.54782   -111763.41   -110931.34    -6700.477    9469.3168    1.1257491 
  985400     309.2681   -111786.75    -110924.8   -2859.2877    9473.9777    1.1251953 
  985500    322.22404   -111813.07   -110915.02    3028.9865    9478.2266    1.1246909 
  985600     300.6873   -111742.46   -110904.42   -1111.1377    9482.5027    1.1241837 
  985700    316.84993   -111776.36   -110893.28    3879.5723    9487.4202    1.1236011 
  985800     301.0395   -111722.72    -110883.7   -1432.7008    9493.3306    1.1229015 
  985900      306.899   -111734.24    -110878.9   -368.15328    9500.5272    1.1220509 
  986000    299.51832   -111712.82   -110878.05   -7318.2955    9507.9092    1.1211798 
  986100    320.49436   -111773.73   -110880.49     948.5395    9513.8772    1.1204765 
  986200    313.56198   -111761.51   -110887.59   -3305.4622    9518.1894    1.1199688 
  986300    307.39787   -111754.82   -110898.08   -3170.0069    9521.3183    1.1196008 
  986400    297.86399   -111741.44   -110911.28     1.287209     9524.544    1.1192216 
  986500    298.80201   -111758.72   -110925.94    9214.1456    9527.9321    1.1188236 
  986600    307.37199   -111795.93   -110939.27   -5615.0317    9531.2434    1.1184349 
  986700    303.42846   -111795.36   -110949.69    3540.0971    9535.2376    1.1179664 
  986800    305.02186   -111808.03   -110957.92   -5085.3273     9539.659    1.1174483 
  986900    301.53922    -111806.1   -110965.69     5365.229    9541.8843    1.1171877 
  987000    286.76955   -111769.63   -110970.39   -4793.3042    9542.6125    1.1171024 
  987100     288.3861   -111777.48   -110973.74    5117.9105    9543.3272    1.1170187 
  987200    289.68906   -111783.95   -110976.57    3011.4595    9542.3858    1.1171289 
  987300    285.36931   -111774.03   -110978.69   -3760.2451    9539.7854    1.1174335 
  987400    303.08952   -111823.45   -110978.72   -3082.2496    9537.1267     1.117745 
  987500    304.32939   -111823.76   -110975.57   -2193.6813    9534.9334    1.1180021 
  987600    301.46736   -111812.48   -110972.28    2375.0384    9532.5919    1.1182767 
  987700    298.63256   -111800.12   -110967.81   -582.27967    9530.4418     1.118529 
  987800    306.57373    -111816.5   -110962.06    3640.8185    9528.3572    1.1187737 
  987900    302.50915   -111797.93   -110954.82   -11805.964    9526.4221    1.1190009 
  988000    291.67349   -111756.32   -110943.41    7177.5566    9524.0735    1.1192769 
  988100    294.70041   -111749.07   -110927.72   -7817.3174    9521.6132    1.1195661 
  988200    306.88887   -111766.61   -110911.29   -3897.6764    9515.6361    1.1202693 
  988300    318.02412   -111785.96   -110899.61    5993.3295    9507.0849     1.121277 
  988400    301.64455   -111734.51   -110893.81    -4926.013    9498.2061    1.1223251 
  988500    309.47357   -111754.83   -110892.31     5024.407     9489.733    1.1233272 
  988600    308.17349   -111751.61   -110892.71   -3310.4464    9480.9048    1.1243732 
  988700    301.66067   -111737.61   -110896.86    283.56825    9471.6762    1.1254687 
  988800    300.00247   -111738.37   -110902.25    795.67484    9460.2476    1.1268284 
  988900     310.3708    -111774.7   -110909.68     -511.877    9447.7969    1.1283133 
  989000    312.26387   -111789.94   -110919.65   -5230.8991    9434.4536    1.1299091 
  989100    293.02482   -111750.16   -110933.49    2797.4312    9420.8076    1.1315458 
  989200    297.04785   -111772.19    -110944.3    4310.5033    9409.1541    1.1329473 
  989300    287.43027   -111754.92   -110953.84   -9546.1857    9399.0818    1.1341614 
  989400    299.95586   -111795.27   -110959.27   -6316.5717    9389.1709    1.1353585 
  989500    294.59993   -111783.07   -110962.01   -10048.154    9378.6082    1.1366372 
  989600    302.20681   -111804.79   -110962.52    2307.4597     9367.963    1.1379288 
  989700      291.895    -111774.2   -110960.68   -17726.384    9357.9726    1.1391437 
  989800    292.85513   -111775.13   -110958.93    5643.9815    9347.1824    1.1404587 
  989900    304.07959   -111805.67   -110958.18    2860.2394    9336.7077    1.1417381 
  990000    306.69689   -111810.95   -110956.17    5523.9005    9326.2221    1.1430218 
  990100    305.33942   -111805.43   -110954.44    -7054.881    9318.0411    1.1440254 
  990200    297.99933   -111784.65   -110954.11    808.79654    9311.6421    1.1448115 
  990300    303.97272   -111801.62   -110954.43    6073.5392    9305.0787     1.145619 
  990400    311.01551   -111822.84   -110956.02    2521.4763    9298.9364    1.1463758 
  990500    307.82461   -111814.87   -110956.94    3329.8429    9294.5809     1.146913 
  990600    303.71295   -111806.72   -110960.25     9272.979    9290.5773    1.1474072 
  990700    289.17514   -111770.58   -110964.63   -1251.0625    9286.4951    1.1479116 
  990800    304.28624   -111818.85   -110970.78   -3277.2954    9281.0247    1.1485882 
  990900    296.83496   -111806.13   -110978.84    -1272.228    9275.1377    1.1493172 
  991000    291.42827   -111801.01   -110988.79   -1496.0328    9269.3607    1.1500335 
  991100     289.5587   -111806.81    -110999.8    1576.7857    9264.4828     1.150639 
  991200    295.63862   -111833.16    -111009.2   -5059.1503    9261.2439    1.1510414 
  991300    293.00795   -111833.19   -111016.56   -1521.2929    9259.5433    1.1512528 
  991400    283.14656   -111811.69   -111022.55   -274.22323    9257.3544     1.151525 
  991500    296.59185   -111853.01    -111026.4    3866.7745    9255.4615    1.1517605 
  991600     293.5926   -111845.87   -111027.61    6577.0831    9253.2659    1.1520338 
  991700    293.20081   -111841.74   -111024.58   -4347.2186    9251.3576    1.1522715 
  991800    283.58529   -111808.46   -111018.09    7286.1417    9248.7685     1.152594 
  991900    287.33461   -111804.24   -111003.43    5833.6255    9246.0557    1.1529322 
  992000    289.34383   -111789.25   -110982.84   -4889.9829    9243.3175    1.1532737 
  992100    300.33114   -111801.89   -110964.85   -5704.2285     9240.228    1.1536593 
  992200    304.51154   -111801.37   -110952.67    -1076.653    9235.3379    1.1542702 
  992300    294.33135   -111765.16   -110944.85    9109.1243    9229.8532    1.1549561 
  992400    309.51992   -111802.42   -110939.77    5406.7545    9225.3405    1.1555211 
  992500    315.32255   -111816.54   -110937.72    4545.0541    9222.1038    1.1559266 
  992600    296.42131   -111762.27   -110936.12     1898.633    9219.7746    1.1562186 
  992700    308.28679   -111795.47   -110936.26    5633.6734    9218.9512    1.1563219 
  992800    303.10948   -111781.64   -110936.86    2323.8366    9219.8234    1.1562125 
  992900    296.70993   -111766.97   -110940.02   -961.50442    9220.8559    1.1560831 
  993000    304.58894   -111792.29   -110943.39   -7067.8091     9221.531    1.1559984 
  993100    296.28937   -111775.05   -110949.27   -2435.9414    9219.0029    1.1563154 
  993200      302.221   -111801.23   -110958.92    5766.3821    9215.5177    1.1567527 
  993300    301.69155    -111811.1   -110970.27   -3086.7579    9212.4616    1.1571365 
  993400    300.08393   -111818.32   -110981.97   -3201.6254    9211.3456    1.1572767 
  993500    291.19155   -111803.05   -110991.49     11264.13    9211.4383     1.157265 
  993600    295.12607   -111820.64    -110998.1    -8010.299    9212.9045    1.1570808 
  993700    292.23942   -111818.23   -111003.75   -7491.0449    9213.5081     1.157005 
  993800    293.77332   -111824.91   -111006.15    10500.291    9211.6131    1.1572431 
  993900    290.47908   -111816.19   -111006.61    3936.4038    9209.1392    1.1575539 
  994000    296.24786   -111830.85   -111005.19     5083.428    9207.8569    1.1577151 
  994100     301.6263   -111841.38   -111000.73    3294.8981    9207.3773    1.1577754 
  994200    295.95414   -111814.56   -110989.72    -4269.189    9207.8555    1.1577153 
  994300    310.06243   -111836.59   -110972.42   -8749.6314    9209.1788     1.157549 
  994400    304.71151   -111798.66   -110949.41   -5130.5791    9211.2585    1.1572876 
  994500    303.97944   -111778.57   -110931.37    1248.7016    9213.7353    1.1569765 
  994600    306.55441   -111777.38   -110922.99    1109.5433    9217.5911    1.1564925 
  994700    307.49319   -111775.87   -110918.87     197.2633    9222.6014    1.1558643 
  994800    305.31552   -111768.87   -110917.94    444.95798    9228.0484     1.155182 
  994900    311.13582   -111788.35    -110921.2    11156.409    9234.2403    1.1544074 
  995000    309.01234      -111789   -110927.76     7689.999    9241.7618    1.1534679 
  995100    309.71378   -111801.63   -110938.44   -569.97834     9250.482    1.1523805 
  995200    302.21126   -111793.12   -110950.84   -1865.4131    9259.1813    1.1512978 
  995300    297.16731   -111791.47   -110963.24    5724.1481    9267.7087    1.1502385 
  995400    290.44052   -111781.66   -110972.19   -6703.6143    9276.0721    1.1492014 
  995500    303.07477   -111823.64   -110978.96   -6546.5613    9284.7354    1.1481292 
  995600    297.89808   -111813.41   -110983.16    1741.3145    9292.7609    1.1471376 
  995700    300.80406   -111826.65   -110988.29     7910.565    9301.8232      1.14602 
  995800    288.61872   -111795.01   -110990.61   -2285.2896     9312.746    1.1446758 
  995900    290.09669   -111799.42   -110990.91    1951.4304      9324.89    1.1431851 
  996000    292.90917   -111803.28   -110986.92   -9643.2644    9337.1617    1.1416826 
  996100    296.57605   -111807.94   -110981.37    629.38579    9348.2645    1.1403267 
  996200    297.40448   -111801.79   -110972.91   -4802.9512    9358.8897    1.1390321 
  996300    299.20436    -111796.3    -110962.4   -6265.8979    9368.6365    1.1378471 
  996400    303.87393   -111797.79   -110950.88   -2005.2683    9377.5764    1.1367623 
  996500    305.40187   -111789.48   -110938.31    1071.6575    9385.6638    1.1357828 
  996600    305.22276    -111778.5   -110927.83   -1370.2725    9393.1284    1.1348802 
  996700    302.36903   -111765.02    -110922.3    5556.5707    9401.1998    1.1339058 
  996800    301.27577   -111758.88    -110919.2   -5347.9108    9409.7231    1.1328788 
  996900    310.48369   -111783.68   -110918.34    10344.061    9416.2546    1.1320929 
  997000    301.34795      -111760   -110920.13   -4422.3388    9424.3301    1.1311229 
  997100    305.18785   -111772.49   -110921.91     1309.529    9432.5718    1.1301346 
  997200    310.71467   -111789.63   -110923.65    694.58941    9439.4597    1.1293099 
  997300    306.81446   -111782.32   -110927.21   -7682.4445    9443.9713    1.1287704 
  997400    306.44735   -111785.65   -110931.56      549.252    9446.1509      1.12851 
  997500    300.30817    -111774.4   -110937.43   -8136.7005    9447.2174    1.1283826 
  997600    299.67501    -111778.4   -110943.19    772.52921    9447.7822    1.1283151 
  997700    292.45419    -111764.7   -110949.62   -8189.1771     9449.244    1.1281406 
  997800    295.91221   -111781.78   -110957.06   -1111.1816     9449.379    1.1281244 
  997900    303.97162   -111810.87   -110963.68   -2251.2226     9446.817    1.1284304 
  998000     295.7157   -111794.91   -110970.74    -1524.829    9443.1136    1.1288729 
  998100    288.96695   -111781.55   -110976.19    341.53932    9439.7169    1.1292791 
  998200    286.94768   -111781.21   -110981.47   -4125.0285     9437.449    1.1295505 
  998300    293.94708   -111805.37   -110986.13   -4008.2562    9433.7169    1.1299974 
  998400     299.4145   -111824.98    -110990.5     914.2827    9426.1734    1.1309017 
  998500    295.11831    -111815.2   -110992.69    5599.2963    9417.6821    1.1319213 
  998600     285.4265      -111786    -110990.5    11122.605    9411.0784    1.1327156 
  998700    305.29425   -111833.54   -110982.66   -1071.1031    9405.7303    1.1333597 
  998800    299.79907   -111805.98   -110970.42    1226.3848    9400.0042    1.1340501 
  998900    296.39839   -111782.05   -110955.97   -10498.598    9394.5081    1.1347135 
  999000    307.72779   -111798.79   -110941.14    -5776.954    9388.8227    1.1354006 
  999100    307.42757    -111786.7   -110929.88   -4852.2824    9383.2839    1.1360709 
  999200    313.06562   -111793.71   -110921.18   -226.23811    9378.0219    1.1367083 
  999300    318.86282   -111804.98   -110916.29   -4092.6885    9372.9052    1.1373288 
  999400    305.73108   -111767.91   -110915.82   -1332.0501    9367.0241    1.1380429 
  999500    297.44659   -111746.89   -110917.89    13018.903    9361.8469    1.1386723 
  999600    307.36403   -111778.46   -110921.82   -6228.0353    9358.0498    1.1391343 
  999700    305.73963   -111780.23   -110928.12    6785.0893    9353.8606    1.1396445 
  999800    301.81129   -111778.11   -110936.95   -3918.6736    9348.8069    1.1402605 
  999900    306.76996    -111803.3   -110948.32    2759.3325    9343.5675    1.1408999 
 1000000    302.17042   -111803.97    -110961.8   -2708.7151    9339.3407    1.1414163 
Loop time of 106661 on 1 procs for 1000000 steps with 936 atoms

Performance: 0.203 ns/day, 118.513 hours/ns, 9.375 timesteps/s
100.0% CPU use with 1 MPI tasks x no OpenMP threads

MPI task timing breakdown:
Section |  min time  |  avg time  |  max time  |%varavg| %total
---------------------------------------------------------------
Pair    | 87886      | 87886      | 87886      |   0.0 | 82.40
Neigh   | 361.86     | 361.86     | 361.86     |   0.0 |  0.34
Comm    | 22.842     | 22.842     | 22.842     |   0.0 |  0.02
Output  | 2.8381     | 2.8381     | 2.8381     |   0.0 |  0.00
Modify  | 18386      | 18386      | 18386      |   0.0 | 17.24
Other   |            | 1.138      |            |       |  0.00

Nlocal:    936 ave 936 max 936 min
Histogram: 1 0 0 0 0 0 0 0 0 0
Nghost:    8955 ave 8955 max 8955 min
Histogram: 1 0 0 0 0 0 0 0 0 0
Neighs:    584666 ave 584666 max 584666 min
Histogram: 1 0 0 0 0 0 0 0 0 0

Total # of neighbors = 584666
Ave neighs/atom = 624.643
Neighbor list builds = 10000
Dangerous builds not checked

Please see the log.cite file for references relevant to this simulation

Total wall time: 29:37:41
