LAMMPS (09 Jan 2020)
package omp 0
WARNING: OpenMP support not enabled during compilation; using 1 thread only. (../fix_omp.cpp:125)
units			real
atom_style		charge
read_data input_files/d2000000_lmps.dat
  orthogonal box = (-15 -15 -15) to (50 50 50)
  1 by 1 by 1 MPI processor grid
  reading atoms ...
  936 atoms
  read_data CPU = 0.00135803 secs
reset_timestep		0

pair_style              reax/c lmp_control lgvdw yes
pair_coeff              * * ffield C H O N

neighbor		2.5 bin
neigh_modify		delay 0 every 5 check no

fix			qeq all qeq/reax 1 0.0 10.0 1e-6 reax/c
fix			bonds all reax/c/bonds 500 bonds.reaxc
fix			npt all npt temp 300 300 100 iso 1.0 1.0 2000
fix 1 all reax/c/species 10 10 100 species.out cutoff 1 4 0.25
WARNING: Resetting reneighboring criteria for fix reax/c/species (../fix_reaxc_species.cpp:97)


thermo			100
thermo_style            custom step temp pe etotal press vol density
thermo_modify           flush yes

timestep		0.25

dump			1 all custom 1000 dump/dump.reax.npt.* id type xu yu zu
restart			500 restart.npt300 restart.npt300
run 1000000
Last active /omp style is pair_style reax/c/omp
Neighbor list info ...
  update every 100 steps, delay 0 steps, check no
  max neighbors/atom: 2000, page size: 100000
  master list distance cutoff = 12.5
  ghost atom cutoff = 12.5
  binsize = 6.25, bins = 11 11 11
  2 neighbor lists, perpetual/occasional/extra = 2 0 0
  (1) pair reax/c/omp, perpetual
      attributes: half, newton off, ghost, omp
      pair build: half/bin/newtoff/ghost/omp
      stencil: half/ghost/bin/3d/newtoff
      bin: standard
  (2) fix qeq/reax/omp, perpetual, copy from (1)
      attributes: half, newton off, ghost
      pair build: copy
      stencil: none
      bin: none
Per MPI rank memory allocation (min/avg/max) = 68.25 | 68.25 | 68.25 Mbytes
Step Temp PotEng TotEng Press Volume Density 
       0            0   -111634.24   -111634.24   -132.14768       274625  0.038816842 
     100    138.62325   -112007.24   -111620.89    457.12067    274623.65  0.038817033 
     200    167.75195   -112067.48   -111599.95   -234.33609    274611.93  0.038818689 
     300    174.16053   -112061.85   -111576.46    250.53558    274563.02  0.038825606 
     400    173.96882   -112032.11   -111547.25    110.71067    274503.38   0.03883404 
     500     174.6905   -112002.57    -111515.7   -212.32158    274436.25   0.03884354 
     600    189.33495   -112009.69      -111482  -0.35323861    274358.08  0.038854607 
     700    189.55975   -111974.92    -111446.6   -77.394107    274270.78  0.038866974 
     800    199.18304   -111965.92   -111410.79   -26.777683    274159.66  0.038882728 
     900    204.39048   -111942.85   -111373.21    130.86601    274014.92  0.038903266 
    1000    203.16597   -111900.48   -111334.25   -159.59215    273857.81  0.038925584 
    1100     215.9392   -111895.75   -111293.91   -283.42178    273675.15  0.038951565 
    1200    220.50644   -111867.72   -111253.15    -130.6524    273475.97  0.038979935 
    1300    238.57916    -111876.2   -111211.26    90.807655    273263.82  0.039010197 
    1400    235.24454   -111824.83   -111169.19    33.101175    273097.72  0.039033922 
    1500    252.17195   -111829.91   -111127.09   -57.183176    272993.48  0.039048828 
    1600     250.4015   -111784.05   -111086.17   -246.32877    272932.39  0.039057568 
    1700    259.51597   -111769.25   -111045.96    258.36714    272858.86  0.039068093 
    1800    268.48573    -111753.4   -111005.12   -25.259162    272791.82  0.039077694 
    1900    277.79772   -111739.38   -110965.14    91.000914    272761.91  0.039081979 
    2000    285.71995   -111723.49   -110927.17   -108.14844    272798.32  0.039076764 
    2100    292.26348   -111704.99   -110890.43   -27.852211    272827.74  0.039072549 
    2200    298.45419   -111688.33   -110856.52   -234.33314    272909.45  0.039060851 
    2300    299.85169   -111662.31   -110826.61    192.92202    273022.74  0.039044643 
    2400    304.16698   -111647.95   -110800.22    171.49851     273161.8  0.039024767 
    2500    307.83605   -111634.11   -110776.15    15.079782    273301.28  0.039004849 
    2600    306.16225   -111607.96   -110754.67    -99.02663     273484.8  0.038978676 
    2700    299.28303   -111571.77   -110737.65    103.57316    273712.05  0.038946314 
    2800    307.43084   -111580.67   -110723.84   -26.459243    273961.06  0.038910914 
    2900    309.12971   -111576.19   -110714.63     107.3122    274272.38  0.038866748 
    3000    314.40475   -111585.16    -110708.9   -109.35662    274609.71  0.038819004 
    3100    315.92795   -111589.82   -110709.31   -78.608376    274906.72  0.038777064 
    3200    312.74579   -111585.21   -110713.57   -33.297631    275120.61  0.038746917 
    3300    320.48886   -111616.51   -110723.29   -64.246666       275277  0.038724904 
    3400    308.93788   -111598.64   -110737.61    169.44079    275469.72  0.038697812 
    3500    310.85988   -111621.64   -110755.25   -24.326942    275715.77  0.038663277 
    3600    304.98637   -111624.48   -110774.46   -78.095323    275966.39  0.038628166 
    3700    315.79928    -111674.6   -110794.45   -157.65662    276158.43  0.038601303 
    3800    299.71668   -111649.45   -110814.13   -1.4639272    276266.58  0.038586192 
    3900    289.86759   -111638.93   -110831.05   -347.95138    276297.25  0.038581909 
    4000    295.05968   -111667.75    -110845.4   -232.42663    276285.59  0.038583537 
    4100    286.21677   -111654.21   -110856.51    70.618612    276286.54  0.038583405 
    4200    292.69854   -111681.82   -110866.05   -55.250468     276289.2  0.038583033 
    4300    300.59375   -111710.47    -110872.7    99.353954    276263.58  0.038586612 
    4400    289.59659   -111683.91   -110876.79   -271.00504    276238.09  0.038590172 
    4500    292.22891   -111692.06    -110877.6    37.221352    276162.95  0.038600672 
    4600    280.95748   -111658.03   -110874.98     -206.954    276041.72  0.038617624 
    4700    291.69379   -111680.64   -110867.68   -96.848173    275903.26  0.038637004 
    4800    294.54492    -111677.3   -110856.39   -69.372565    275809.55  0.038650131 
    4900    291.22157   -111655.19   -110843.53     183.2166    275701.63  0.038665261 
    5000     298.2975   -111660.18   -110828.81    144.34751    275560.92  0.038685004 
    5100    291.55021   -111625.83   -110813.26   -231.08555    275346.49  0.038715131 
    5200    303.20512   -111643.13   -110798.08    -25.92956    275158.54  0.038741576 
    5300     296.5824   -111612.35   -110785.76    69.581153    274957.47  0.038769906 
    5400       315.34   -111653.33   -110774.46   -145.41917    274710.79  0.038804721 
    5500    306.48876    -111619.5    -110765.3    38.381752    274472.29   0.03883844 
    5600    308.85997   -111619.53   -110758.72     327.4501    274276.37  0.038866182 
    5700    305.85396   -111608.05   -110755.62    151.34561    274146.81   0.03888455 
    5800    315.51545   -111637.06    -110757.7    107.80108    274049.88  0.038898304 
    5900    306.40907   -111619.41   -110765.43    113.23709    274016.11  0.038903098 
    6000     311.2064   -111646.03   -110778.68    105.91779    273970.21  0.038909615 
    6100    305.43304   -111645.58   -110794.32    65.918978    273936.61  0.038914388 
    6200    301.05749   -111650.99   -110811.92    78.339379    273849.83   0.03892672 
    6300    286.75684   -111627.49   -110828.28    142.00424    273745.89  0.038941499 
    6400    294.14222   -111662.67   -110842.88    53.767714    273658.89   0.03895388 
    6500    301.72278   -111696.97   -110856.05    -153.5516    273611.44  0.038960634 
    6600    290.71588   -111676.92   -110866.68    24.139563    273635.02  0.038957277 
    6700    290.82937   -111685.73   -110875.17    -188.0557    273721.76  0.038944933 
    6800    281.76075   -111666.56   -110881.28   -303.45222    273809.58  0.038932441 
    6900     297.6609   -111712.82   -110883.22    147.66352    273881.18  0.038922264 
    7000    277.85615   -111657.51   -110883.11    295.57058    273921.54  0.038916529 
    7100    287.61689   -111679.55   -110877.94    104.25273    274022.75  0.038902155 
    7200    291.52255   -111682.93   -110870.44    247.21753    274171.86  0.038880997 
    7300    295.63809    -111683.7   -110859.73   -239.21264    274345.14  0.038856439 
    7400    293.70836   -111665.73   -110847.14   -265.29055    274470.08  0.038838752 
    7500    295.94619    -111657.8   -110832.98    212.35077     274536.2  0.038829398 
    7600    296.60914   -111646.07    -110819.4    13.766198    274610.81  0.038818848 
    7700    297.36522   -111635.38   -110806.61    55.323929     274706.4  0.038805341 
    7800    313.13281   -111668.76   -110796.05    199.62067    274773.69  0.038795838 
    7900    310.51491   -111654.58   -110789.16    234.09116    274825.42  0.038788534 
    8000    309.20437   -111645.33   -110783.56    16.455129    274869.03  0.038782381 
    8100    303.73522   -111627.01   -110780.48   -24.438309    274881.14  0.038780673 
    8200    299.50648    -111613.3   -110778.56   -29.988085    274901.14  0.038777851 
    8300    297.94805   -111609.79   -110779.39    243.03304    274911.16  0.038776437 
    8400    316.07976    -111660.5   -110779.56   -188.44945    274875.15  0.038781518 
    8500    311.78725   -111652.51   -110783.54   -82.001664    274820.51  0.038789228 
    8600    302.51658   -111632.21   -110789.08   -72.818847       274743   0.03880017 
    8700    297.71879   -111627.12   -110797.36   -167.48128    274659.94  0.038811904 
    8800    301.60485   -111645.83   -110805.24   -275.66311    274607.86  0.038819265 
    8900    290.37438   -111622.55   -110813.26    48.702644    274564.74  0.038825362 
    9000    304.57532   -111670.96   -110822.09   -121.16836    274546.31  0.038827968 
    9100    300.13967   -111667.77   -110831.26   -48.442153    274513.81  0.038832565 
    9200    290.81196   -111649.35   -110838.84    179.29494     274519.5  0.038831761 
    9300    286.67527    -111643.6   -110844.62   -404.39023    274521.08  0.038831537 
    9400    293.68646   -111666.44   -110847.92    82.635344    274549.63  0.038827498 
    9500    297.77894   -111679.57   -110849.64   -281.86737    274657.44  0.038812258 
    9600    296.82155   -111677.48   -110850.22    -98.94393    274819.28  0.038789402 
    9700    282.63195   -111635.93   -110848.22   -13.509702    274981.92   0.03876646 
    9800    292.02153   -111658.23   -110844.35   -113.90105    275082.92  0.038752225 
    9900    290.22076   -111645.89   -110837.02   -225.12393    275154.62  0.038742127 
   10000    305.74451   -111680.64   -110828.51      121.277    275197.97  0.038736024 
   10100    292.72654   -111634.57   -110818.72   -56.718894     275230.2  0.038731489 
   10200    300.78148   -111648.93   -110810.63   -37.063113    275263.08  0.038726862 
   10300    298.82982   -111637.23   -110804.37   -170.85743    275281.15   0.03872432 
   10400     300.7595    -111634.7   -110796.47    193.78907    275276.26  0.038725008 
   10500      313.627   -111662.37   -110788.27    -56.91125    275298.25  0.038721915 
   10600    307.97989   -111640.87   -110782.51   -44.434435     275378.8  0.038710588 
   10700    306.49593   -111632.63    -110778.4     17.99069    275466.92  0.038698204 
   10800    302.91505   -111620.61   -110776.37   -130.72228    275504.86  0.038692876 
   10900    302.30269   -111619.54   -110777.01    308.53706    275488.28  0.038695205 
   11000    299.79448   -111613.95    -110778.4   -17.656023    275445.27  0.038701246 
   11100    310.31864   -111645.18    -110780.3    60.935263     275394.4  0.038708395 
   11200     307.7303   -111641.06    -110783.4    220.60296     275308.8  0.038720431 
   11300    304.83217   -111638.51   -110788.93    51.632771    275212.43  0.038733989 
   11400    297.35207   -111626.42   -110797.68    19.686849     275085.2  0.038751905 
   11500    299.99288   -111643.31   -110807.21   -92.088568    274979.27  0.038766833 
   11600    305.94777   -111671.02   -110818.32   -218.60447    274853.33  0.038784596 
   11700     310.8484    -111695.5   -110829.14   -160.54942     274726.6  0.038802487 
   11800    300.02236   -111676.55   -110840.37   -220.08793    274616.63  0.038818026 
   11900    291.89333    -111664.2   -110850.68   -199.49525    274495.85  0.038835106 
   12000    296.30124   -111684.83   -110859.03   -267.94286    274376.73  0.038851965 
   12100     302.1187   -111707.87   -110865.85    317.53619    274261.45  0.038868297 
   12200    290.98551   -111681.65   -110870.65   -211.20169    274164.89  0.038881986 
   12300    292.48055   -111687.88   -110872.72    9.7713201     274010.8  0.038903852 
   12400    291.11352    -111683.7   -110872.35   -360.50066     273859.4  0.038925358 
   12500    298.28858   -111699.98   -110868.63   -40.436836    273703.79   0.03894749 
   12600    296.29593   -111687.76   -110861.96    154.99769    273521.71  0.038973416 
   12700    293.55097   -111669.81   -110851.67   -100.17886    273365.16  0.038995735 
   12800    288.34394   -111642.58   -110838.95   -313.68781    273232.19  0.039014712 
   12900    292.45847   -111641.15   -110826.05    316.67633    273087.07  0.039035445 
   13000    306.73258   -111668.46   -110813.57   -6.5599664    272940.22  0.039056447 
   13100    302.26358   -111648.33    -110805.9   -252.75186    272815.14  0.039074353 
   13200    308.23929   -111661.31   -110802.23   -250.43942    272650.99  0.039097879 
   13300    297.13381   -111630.21   -110802.08   -373.02917    272459.81  0.039125313 
   13400    305.26968   -111655.17   -110804.37      288.252    272242.47  0.039156548 
   13500    312.55901   -111678.94   -110807.82    41.454259    272017.86  0.039188881 
   13600    298.76322   -111646.21   -110813.54   -376.26712    271805.06  0.039219561 
   13700    298.58249   -111652.95   -110820.79   -113.26496    271580.62  0.039251973 
   13800     312.2722   -111696.68   -110826.36    36.286509    271353.61  0.039284811 
   13900    299.30543   -111667.12   -110832.94   -101.17474    271172.87  0.039310995 
   14000    288.57203   -111643.78   -110839.52   -172.57652    271067.58  0.039326265 
   14100    309.48933   -111710.38   -110847.81    205.78834    270986.77  0.039337991 
   14200    294.08333   -111680.23    -110860.6   -170.70111    270921.61  0.039347453 
   14300    289.29312   -111683.04   -110876.76   -67.158137    270873.66  0.039354418 
   14400    281.73148   -111676.96   -110891.76   -40.720236    270796.69  0.039365604 
   14500    284.68931   -111695.41   -110901.96    347.42367    270692.27   0.03938079 
   14600    285.76964   -111703.78   -110907.32   -261.43812    270573.96  0.039398009 
   14700    297.15532   -111734.78   -110906.59   -331.28509    270419.32  0.039420539 
   14800    287.99284   -111706.08   -110903.43    145.00929    270214.31  0.039450447 
   14900    285.07517   -111689.95   -110895.43    130.08795    269988.35  0.039483464 
   15000    295.25187   -111707.51   -110884.62   -124.55208    269797.95  0.039511329 
   15100    287.37312   -111670.95   -110870.03   -257.06168    269568.48  0.039544962 
   15200    300.64305   -111692.36   -110854.45   -280.83508    269273.23  0.039588322 
   15300    296.28383   -111667.92   -110842.16   -339.13494    268951.07  0.039635743 
   15400    299.07104   -111668.34   -110834.81   -226.59398    268626.95  0.039683567 
   15500    305.89758      -111682   -110829.44   -19.918662       268353  0.039724078 
   15600    299.46063   -111661.19   -110826.57   -32.368065     268073.1  0.039765555 
   15700    296.30174   -111650.23   -110824.42    192.41397    267745.84  0.039814159 
   15800    308.04767   -111680.37   -110821.83   -99.398477     267421.8  0.039862402 
   15900    320.51181   -111715.03   -110821.75    202.90212    267111.27  0.039908744 
   16000    290.67196   -111635.41   -110825.29   -34.477592    266834.13  0.039950195 
   16100    297.66779   -111658.66   -110829.05    7.8728154    266568.15  0.039990057 
   16200     302.0805   -111675.89   -110833.98    221.12501     266351.1  0.040022645 
   16300    294.32176   -111660.57   -110840.28   -97.669001    266168.58   0.04005009 
   16400     304.6947   -111696.69   -110847.49    3.0040706    265972.16  0.040079666 
   16500    294.87193   -111676.13    -110854.3   -285.32667    265777.22  0.040109063 
   16600    299.02308    -111694.3   -110860.91    72.688216    265603.48    0.0401353 
   16700    297.05541   -111695.49   -110867.58    275.48052    265440.95  0.040159875 
   16800    287.52166   -111673.08   -110871.74   -218.90838    265305.68  0.040180351 
   16900    290.99098   -111682.53   -110871.52   -115.85304    265153.63  0.040203392 
   17000    291.05756   -111680.72   -110869.52    311.00885    264983.07  0.040229269 
   17100    293.52534   -111683.02   -110864.95    292.62498    264791.24  0.040258414 
   17200    299.84948    -111689.5    -110853.8   -218.25725    264552.72  0.040294711 
   17300    302.88444   -111683.16   -110839.01   -13.819022    264307.05  0.040332164 
   17400     305.1474   -111673.77   -110823.31    237.24373    264068.91  0.040368536 
   17500    314.65611   -111688.07    -110811.1   -207.13937    263844.45  0.040402879 
   17600    306.87744   -111657.03   -110801.75   -324.96926    263593.66   0.04044132 
   17700    312.91535   -111667.92    -110795.8     191.7301    263343.73    0.0404797 
   17800    301.91487   -111634.77   -110793.31    83.854642    263120.46   0.04051405 
   17900     299.6949   -111629.94   -110794.67   -282.94601    262875.64  0.040551781 
   18000    299.23868   -111630.13   -110796.14   -64.522595    262574.97  0.040598216 
   18100    308.64518   -111658.29   -110798.08   -96.281888    262244.52  0.040649374 
   18200    297.59246    -111630.8   -110801.39   -62.302958    261906.16  0.040701888 
   18300    306.07883   -111659.49   -110806.43    122.24895    261617.56  0.040746789 
   18400    305.84016   -111667.59    -110815.2   -163.75143    261322.25  0.040792835 
   18500    297.12294   -111653.65   -110825.55    5.0501337    260957.21  0.040849898 
   18600    301.99051   -111682.05   -110840.39   -170.22256    260527.15  0.040917331 
   18700    297.21772   -111687.47   -110859.11    164.29595    260047.22  0.040992845 
   18800    283.98872   -111667.63   -110876.13     38.61332    259558.58  0.041070017 
   18900    298.29055   -111720.79   -110889.43   -231.71854    259103.44  0.041142161 
   19000    296.22311   -111724.08   -110898.48    55.897967    258629.72   0.04121752 
   19100    298.06969   -111731.51   -110900.77    198.39673    258117.13  0.041299372 
   19200    278.08994   -111674.32   -110899.27   -34.094238    257623.53    0.0413785 
   19300    294.12121   -111713.59   -110893.86    191.57627    257181.19  0.041449669 
   19400    292.36968   -111703.74   -110888.89    -317.8734    256754.73  0.041518515 
   19500    282.72578    -111668.7   -110880.73    10.553373    256313.65  0.041589963 
   19600    299.51818   -111704.87   -110870.09    453.49884    255878.51   0.04166069 
   19700     294.1891   -111678.13   -110858.21   -114.62272    255510.61  0.041720677 
   19800     297.0962   -111674.34   -110846.32   -360.79516    255169.26  0.041776488 
   19900    296.96439   -111663.98   -110836.32    141.42619    254833.64  0.041831507 
   20000    303.18049   -111673.22   -110828.24   -299.40346    254464.89  0.041892127 
   20100    306.19636   -111676.25   -110822.87    30.246624    254043.13  0.041961676 
   20200    302.29432   -111660.84   -110818.33   -37.691254    253616.08  0.042032332 
   20300    303.65178   -111661.32   -110815.02   -181.71043    253205.42  0.042100503 
   20400    309.43381   -111675.54   -110813.13    421.36717     252841.2  0.042161149 
   20500    291.77672   -111624.38   -110811.18   -142.77482    252531.29  0.042212888 
   20600    312.62862   -111682.65   -110811.33    127.57756    252252.57  0.042259531 
   20700    313.10867   -111685.98   -110813.33    40.920474    252010.52   0.04230012 
   20800    303.74527   -111666.79   -110820.24    150.66329    251777.24  0.042339313 
   20900    306.07818   -111684.58   -110831.52   -310.32061    251512.15  0.042383937 
   21000    297.92736   -111675.11   -110844.77   -260.78765    251180.45  0.042439909 
   21100     292.1074   -111675.97   -110861.85   -116.38618    250820.62  0.042500794 
   21200     286.1797    -111675.6      -110878   -319.77745    250451.74  0.042563392 
   21300      297.133   -111716.24   -110888.11    231.02385    250101.02  0.042623078 
   21400    285.36774   -111687.55   -110892.22    96.436807    249791.39  0.042675911 
   21500    284.19033   -111686.03   -110893.98    259.22135     249501.6   0.04272548 
   21600    289.97975   -111700.61   -110892.42   -340.23267    249197.65  0.042777592 
   21700    296.70329    -111714.2   -110887.27   -358.25614    248824.59  0.042841727 
   21800    295.35853   -111703.95   -110880.77    87.616092     248416.4  0.042912125 
   21900    294.93079   -111694.88   -110872.89   -269.45194    248011.86  0.042982119 
   22000    291.78489   -111678.19   -110864.97    350.94534     247610.7  0.043051756 
   22100    290.69876   -111669.39   -110859.19   -263.15334    247179.75  0.043126815 
   22200    299.93699   -111687.42   -110851.48   -29.509208     246682.9  0.043213678 
   22300    294.42992    -111665.6      -110845   -267.49071    246175.84  0.043302688 
   22400    307.93064   -111697.88   -110839.66   -1.4847427    245664.67   0.04339279 
   22500    301.30802   -111676.69   -110836.92   -243.52429    245160.95  0.043481947 
   22600    298.66782   -111666.58   -110834.18    235.30823    244687.71  0.043566043 
   22700    304.04945   -111679.22   -110831.82   -121.78435    244271.29  0.043640312 
   22800    298.81755   -111663.13   -110830.31    74.352327    243882.71  0.043709844 
   22900    294.75835   -111650.77   -110829.26   -281.39516    243501.79  0.043778222 
   23000    302.77511   -111672.21   -110828.36   0.67758846    243110.34  0.043848712 
   23100    309.44761   -111691.27   -110828.83   -303.27263     242703.7  0.043922179 
   23200      297.609   -111660.13   -110830.68   -91.486273    242304.48  0.043994546 
   23300    289.14022    -111641.2   -110835.35    132.62169    241919.75   0.04406451 
   23400    299.06745   -111676.66   -110843.14   -255.19028    241562.03  0.044129765 
   23500     304.1542   -111703.09    -110855.4    318.51844    241213.43   0.04419354 
   23600    298.51622   -111703.94   -110871.96    179.44568    240879.68  0.044254773 
   23700     294.7628   -111710.15   -110888.63   -102.52204    240575.65  0.044310699 
   23800    295.21898   -111724.09   -110901.29    174.94845    240301.59  0.044361236 
   23900    289.36934   -111715.73   -110909.24   -109.88569    240063.88  0.044405161 
   24000    286.90897      -111713   -110913.37   -55.089509    239831.23  0.044448237 
   24100    281.53844   -111697.21   -110912.55    2.6927024    239579.99  0.044494849 
   24200    289.44342   -111714.66   -110907.97   -157.03863    239320.69  0.044543058 
   24300    284.64476   -111694.52   -110901.19    196.77581    239041.33  0.044595115 
   24400    296.69404   -111718.19   -110891.29   -178.18539    238764.52  0.044646815 
   24500     293.0569   -111697.39   -110880.62  -0.57884012    238474.55  0.044701102 
   24600    294.98882   -111692.81   -110870.65   -110.54696     238171.8  0.044757925 
   24700     292.4444   -111676.93   -110861.87   -281.20811    237863.78  0.044815882 
   24800    303.02527    -111698.8   -110854.25   -141.17052    237580.84  0.044869255 
   24900    291.29018   -111660.37   -110848.53   -128.12467    237299.09  0.044922529 
   25000    292.91572   -111658.36   -110841.99   -26.270919    236993.04  0.044980543 
   25100    286.14206   -111632.53   -110835.04   -246.07725    236721.39   0.04503216 
   25200    306.15617   -111682.04   -110828.77    115.12269    236478.05  0.045078499 
   25300    303.87196   -111670.34   -110823.43    295.26299    236230.56  0.045125724 
   25400    288.01112   -111623.58   -110820.88   -10.778399    235968.13  0.045175912 
   25500     303.0117    -111663.4   -110818.89   -57.847081    235706.85  0.045225989 
   25600    309.77377   -111680.96    -110817.6    151.88594    235486.19  0.045268367 
   25700     303.9027   -111665.82   -110818.82   -183.39817    235308.03  0.045302641 
   25800     307.0063   -111678.24    -110822.6   -256.46244    235107.68  0.045341247 
   25900    306.53482    -111683.6   -110829.27    145.30049    234844.61  0.045392037 
   26000    307.18885    -111694.4   -110838.25   -323.79885     234518.2  0.045455216 
   26100    283.66927   -111642.23   -110851.63    85.384101    234172.54  0.045522312 
   26200    294.01378   -111686.72   -110867.29    13.852576    233835.58   0.04558791 
   26300    301.63509   -111723.78    -110883.1    45.876322    233519.65  0.045649586 
   26400    294.89263   -111716.12   -110894.24    141.03475    233236.74  0.045704957 
   26500    280.84809   -111682.94    -110900.2    364.45248    232972.72  0.045756753 
   26600    297.02194   -111729.55   -110901.73    655.06647    232685.93   0.04581315 
   26700    293.32889   -111717.42    -110899.9    289.53449    232384.08  0.045872657 
   26800    288.01093   -111697.06   -110894.35   -350.74254    232085.58  0.045931657 
   26900    288.70069   -111692.68   -110888.05   -19.552501    231753.07  0.045997559 
   27000    296.23047   -111705.06   -110879.45   -78.040446     231423.5  0.046063063 
   27100    296.82206    -111698.5   -110871.24    246.28339    231133.42  0.046120874 
   27200    303.10196   -111708.62   -110863.86   -29.565206    230910.45  0.046165409 
   27300    307.24333   -111714.89   -110858.58   -270.20701    230717.97  0.046203923 
   27400    304.78575   -111704.04   -110854.58     212.0661    230480.01  0.046251626 
   27500     312.7488   -111722.82   -110851.17   -83.453329    230222.32  0.046303397 
   27600    296.04262   -111672.52   -110847.43    145.27135    229953.15  0.046357597 
   27700    298.03765   -111675.29   -110844.65   -399.49016    229733.21  0.046401977 
   27800    309.93185   -111705.74   -110841.94    24.934954    229542.08  0.046440615 
   27900     295.2722   -111663.82   -110840.88    464.73884     229383.6    0.0464727 
   28000    303.18955   -111684.98   -110839.97   -59.152522    229230.85  0.046503668 
   28100    295.26127    -111662.7   -110839.79   -47.646776    229095.62  0.046531118 
   28200    298.94022   -111673.21   -110840.05    224.71929    228943.49  0.046562037 
   28300    301.22451   -111679.93    -110840.4   -142.62758    228759.85  0.046599416 
   28400    315.69886   -111720.68   -110840.81   -422.40946    228559.29  0.046640307 
   28500    292.95487   -111661.43   -110844.95   -11.861287    228366.13  0.046679756 
   28600    294.25628   -111671.79   -110851.68   -249.83293     228193.9  0.046714989 
   28700    289.33086   -111670.21   -110863.83    281.92575    228031.05  0.046748349 
   28800    291.45167   -111690.03   -110877.74   -193.02371    227856.83  0.046784094 
   28900    295.62122   -111714.19   -110890.28    22.851398    227642.43  0.046828156 
   29000    287.86536   -111702.78   -110900.49     182.6035    227405.46  0.046876953 
   29100    297.62016    -111736.3   -110906.82   -161.90415    227161.74  0.046927248 
   29200    290.15007   -111719.33   -110910.67    79.607914    226923.71  0.046976471 
   29300    302.38608   -111753.76   -110910.99   -84.072039    226723.18  0.047018022 
   29400    285.78535   -111704.17   -110907.67   -355.88422    226524.41  0.047059279 
   29500    289.45444   -111706.86   -110900.14    361.78867    226302.37  0.047105452 
   29600    288.87351   -111694.25   -110889.14    133.23649     226111.6  0.047145195 
   29700    295.29496      -111699      -110876    369.83823    225939.27  0.047181153 
   29800    294.02257   -111682.91   -110863.46   -252.48565    225771.11  0.047216294 
   29900    300.95678    -111691.1   -110852.31    -14.59386     225608.1  0.047250411 
   30000    297.76652   -111672.39    -110842.5   -317.19146    225495.33  0.047274041 
   30100    306.50237   -111690.18   -110835.94    269.37889    225401.87  0.047293641 
   30200    300.73455   -111670.48   -110832.32    184.51642    225351.18   0.04730428 
   30300    299.69752   -111665.92   -110830.65   -316.45358    225303.11  0.047314372 
   30400    301.50366   -111670.49   -110830.18   -456.97686    225238.68  0.047327908 
   30500    304.87218   -111681.32   -110831.62   -141.02105    225144.48  0.047347709 
   30600    305.14811   -111685.48   -110835.02    316.37564    225050.31  0.047367521 
   30700    300.73721   -111677.07    -110838.9    310.29993    224963.95  0.047385705 
   30800    302.42556   -111686.41   -110843.53   -97.413467    224878.57  0.047403697 
   30900    300.46059    -111686.5    -110849.1    114.15852    224764.14   0.04742783 
   31000    293.88897   -111673.13   -110854.04   -102.00568    224657.03  0.047450443 
   31100    296.08296   -111685.68   -110860.48    174.31532    224532.36  0.047476789 
   31200    287.89849    -111669.5   -110867.11     62.54634    224374.63  0.047510163 
   31300    290.82204   -111684.95   -110874.41    307.53071    224214.95  0.047543999 
   31400     302.6489   -111728.15   -110884.65   -128.83344    224083.07  0.047571981 
   31500    293.49133   -111714.09   -110896.11   -477.01441     223938.1  0.047602776 
   31600    289.52334   -111715.62    -110908.7     73.80971    223749.18   0.04764297 
   31700    284.23243   -111710.64   -110918.47    -183.6369    223530.31   0.04768962 
   31800    280.84591   -111706.49   -110923.75    317.03408    223290.18  0.047740905 
   31900    283.18806   -111713.48   -110924.22   -114.31007    223052.04  0.047791875 
   32000    283.41023   -111708.48    -110918.6    59.237192     222835.6  0.047838296 
   32100    285.90683   -111704.43   -110907.59   -63.959417    222653.49  0.047877423 
   32200    291.94103   -111705.74   -110892.08   -530.16414    222480.32   0.04791469 
   32300    288.62797   -111679.55   -110875.12   -316.16029    222313.49  0.047950646 
   32400    302.46461   -111703.96   -110860.97    11.717767    222160.44   0.04798368 
   32500    300.60145   -111690.31   -110852.52   -542.74702    222009.35  0.048016336 
   32600    308.33325   -111706.42   -110847.08   -15.122044    221851.16  0.048050572 
   32700    305.33966   -111694.39   -110843.39   -163.94024    221696.97  0.048083993 
   32800     310.9684   -111708.43   -110841.75   -38.559435    221570.25  0.048111493 
   32900    306.04235   -111696.04   -110843.08   -170.48602    221445.55  0.048138585 
   33000    299.67496   -111681.07   -110845.86    471.45098    221315.11  0.048166956 
   33100    301.36933   -111687.51   -110847.58   -108.03258    221218.96  0.048187893 
   33200    296.06746   -111675.09   -110849.93    31.377715    221136.17  0.048205933 
   33300    305.06631   -111700.76   -110850.52   -9.2696329    221031.22  0.048228821 
   33400    301.15163    -111690.2   -110850.87   -112.25928    220925.59  0.048251882 
   33500    296.74001   -111679.29   -110852.26    330.55548    220849.77  0.048268447 
   33600    288.00892   -111655.98   -110853.28   -228.40425    220838.59   0.04827089 
   33700     291.0679   -111665.43   -110854.21    197.38016    220842.66  0.048270001 
   33800    294.51655   -111676.64    -110855.8    373.86452    220877.86  0.048262309 
   33900    302.36678   -111701.12    -110858.4   -174.04902    220882.25   0.04826135 
   34000    304.78524   -111710.82   -110861.36   -147.91076     220874.3  0.048263087 
   34100    300.97101   -111703.12   -110864.29   -150.10577    220841.58  0.048270236 
   34200    294.91552   -111690.48   -110868.54    25.310184    220798.44  0.048279668 
   34300    295.60479   -111696.65   -110872.79   -187.47587    220741.85  0.048292044 
   34400    281.70733      -111661   -110875.87    290.75835    220626.86  0.048317214 
   34500    296.44453   -111704.35   -110878.14    86.083262    220508.11  0.048343236 
   34600    298.15966   -111707.79    -110876.8    78.908149    220383.99  0.048370461 
   34700    298.63438   -111704.54   -110872.23    80.945213    220302.13  0.048388436 
   34800    297.08164   -111692.98      -110865   -269.77663    220230.04  0.048404275 
   34900    295.53601   -111678.01   -110854.33   -184.10108     220147.3  0.048422466 
   35000    300.53322   -111679.28   -110841.68    6.5983123    220023.35  0.048449745 
   35100    303.02552   -111674.54   -110829.99    48.573115     219876.2  0.048482171 
   35200    301.71638   -111661.68   -110820.78    322.07168    219710.31  0.048518777 
   35300    303.60304   -111662.04   -110815.88   -53.590187    219534.34  0.048557666 
   35400    300.76811   -111649.61   -110811.35    318.00381    219370.36  0.048593964 
   35500    309.44583   -111671.56   -110809.12   -183.86764    219236.85  0.048623556 
   35600    308.42098    -111668.8   -110809.21    276.58091    219128.83  0.048647527 
   35700    311.05751   -111679.23   -110812.29   -321.48326    219057.07  0.048663461 
   35800    302.21205      -111661   -110818.72   -324.64924    218975.01  0.048681699 
   35900    303.55867   -111675.45   -110829.42   -133.23806    218833.97  0.048713073 
   36000    295.31619   -111668.98   -110845.91   -369.01695    218667.85  0.048750082 
   36100    297.36631   -111693.85   -110865.07     236.9465    218471.22  0.048793957 
   36200    294.77464   -111703.17   -110881.62    144.09389    218302.24  0.048831726 
   36300    285.89096   -111686.74   -110889.94    319.16869    218165.31  0.048862377 
   36400    292.77619    -111708.7   -110892.71   -183.47597    218032.72  0.048892091 
   36500    295.83636    -111716.4   -110891.89    38.894335    217890.22  0.048924066 
   36600    290.41411   -111697.45   -110888.05    305.68278    217786.43  0.048947381 
   36700    297.90343   -111713.93   -110883.66   -182.69768    217708.41  0.048964922 
   36800    294.30246   -111698.66   -110878.43    194.00294     217625.4  0.048983599 
   36900    291.71642   -111685.56   -110872.53   -310.17535    217541.09  0.049002583 
   37000    306.91627   -111720.29   -110864.89    69.475422    217472.17  0.049018112 
   37100     297.5732   -111689.12   -110859.77   -211.70251    217430.27  0.049027559 
   37200    296.68558    -111682.2   -110855.32   -558.54287    217395.71  0.049035353 
   37300     303.7193   -111697.53   -110851.05    123.33549    217382.84  0.049038255 
   37400    299.12458   -111680.78    -110847.1    -100.5386    217397.96  0.049034846 
   37500    298.12972   -111673.34   -110842.44    215.61797    217411.32  0.049031833 
   37600      301.846   -111679.08   -110837.82    135.91173    217371.91  0.049040723 
   37700    313.82601   -111708.86   -110834.21    -200.0635    217291.25  0.049058927 
   37800    302.39728   -111675.56   -110832.76    238.19675    217207.58  0.049077825 
   37900    309.35586   -111695.73   -110833.53    13.652845    217136.31  0.049093933 
   38000    302.11063    -111680.2    -110838.2   -45.530936    217063.67  0.049110361 
   38100    293.48674   -111664.42   -110846.46   -28.205123    216962.03  0.049133369 
   38200    297.38951   -111685.78   -110856.93    -58.38089    216810.75  0.049167651 
   38300     302.9277    -111713.7   -110869.42    413.28219    216640.54  0.049206281 
   38400     289.2281   -111686.09   -110879.99    -235.7677    216498.85  0.049238485 
   38500    287.55258   -111688.32    -110886.9    60.186996    216371.88  0.049267379 
   38600    286.55124   -111689.67   -110891.04   -162.56454    216215.86  0.049302929 
   38700    305.62431   -111742.76   -110890.96    194.31416    216047.86  0.049341269 
   38800    299.70863   -111724.29   -110888.99   -106.84482    215905.27  0.049373855 
   38900    285.82511   -111679.01    -110882.4   -44.415419    215750.14  0.049409355 
   39000    287.97988   -111674.64   -110872.03    19.609952    215585.63  0.049447058 
   39100    295.13556   -111681.19   -110858.63   -7.0849024    215400.31    0.0494896 
   39200    302.22834   -111687.21   -110844.88    315.67778    215243.68  0.049525615 
   39300    308.97487   -111694.56   -110833.43    199.30214    215102.41   0.04955814 
   39400    301.08776   -111666.17   -110827.03     79.37141    214966.34   0.04958951 
   39500    303.64757   -111669.62   -110823.33   -103.83129    214834.93  0.049619842 
   39600    301.03333   -111661.62   -110822.62   -299.27504    214676.73  0.049656408 
   39700      300.871   -111661.91   -110823.36    43.568513    214504.68  0.049696238 
   39800    293.62369   -111644.17   -110825.82    23.102934    214340.07  0.049734404 
   39900    299.70789   -111664.53   -110829.22    2.8698928    214171.86  0.049773464 
   40000    315.65513   -111712.47   -110832.72     31.53021    214036.45  0.049804953 
   40100    298.60106   -111669.71   -110837.49    644.28013    213921.56  0.049831701 
   40200    291.39809   -111653.96   -110841.82   -107.45878    213843.45  0.049849903 
   40300    295.83443   -111670.44   -110845.93    807.94416     213759.9  0.049869388 
   40400    306.08384   -111702.84   -110849.77   -88.792617    213665.72  0.049891369 
   40500    298.15395   -111684.85   -110853.88    171.59868    213567.38  0.049914344 
   40600    290.57097   -111666.09   -110856.25   -215.20119    213461.28  0.049939151 
   40700    303.95726   -111704.25    -110857.1   -128.84658    213321.93  0.049971775 
   40800    289.47106      -111664   -110857.23   -50.031334    213147.29  0.050012717 
   40900    298.08898   -111686.22   -110855.43    85.847064     212974.3  0.050053342 
   41000    291.77753   -111666.34   -110853.14   -213.04535     212829.6  0.050087372 
   41100    301.45094   -111691.14   -110850.98   -86.817625    212725.89  0.050111792 
   41200    292.78058      -111664      -110848   -676.00945    212623.81   0.05013585 
   41300    295.60088   -111666.81   -110842.95   -131.70881    212475.07  0.050170947 
   41400    295.20365   -111654.51   -110831.76    538.32434    212314.22  0.050208956 
   41500    314.01387   -111684.85   -110809.67    302.77274    212192.55  0.050237745 
   41600    309.82638      -111645    -110781.5   -608.34948       212070  0.050266776 
   41700    313.68062      -111638   -110763.75   -136.74989    211930.94  0.050299759 
   41800     318.6717   -111644.17   -110756.01   -587.91623    211798.27  0.050331268 
   41900    316.58256   -111638.65   -110756.31    139.42921    211637.97  0.050369391 
   42000    316.20914   -111645.28   -110763.99     127.3666    211483.54  0.050406171 
   42100    315.68547   -111654.86   -110775.03    276.41965    211331.75  0.050442375 
   42200    303.30758   -111635.91   -110790.57   -212.10446    211198.85  0.050474116 
   42300    311.70241   -111674.25   -110805.52   -505.60821    211058.09  0.050507779 
   42400    306.91196   -111674.06   -110818.68    -198.1646    210896.94  0.050546373 
   42500    300.32297   -111663.75   -110826.73    87.917112     210723.7  0.050587928 
   42600    305.03944   -111684.71   -110834.55   -175.21468    210552.99  0.050628943 
   42700    304.70424   -111689.73   -110840.51    428.48284    210393.58  0.050667304 
   42800    304.10734   -111694.26    -110846.7    223.63785     210248.9  0.050702169 
   42900    295.72174   -111675.93   -110851.74    605.89767    210100.71  0.050737932 
   43000    295.58679   -111680.64   -110856.82    55.750515    209957.75  0.050772479 
   43100    292.12391   -111675.32   -110861.16    87.608126    209802.39  0.050810076 
   43200    296.21655   -111690.57      -110865    561.69408    209646.23  0.050847923 
   43300     301.5253   -111708.33   -110867.97    549.81216    209543.18   0.05087293 
   43400     291.6338   -111685.89   -110873.09   -256.80588    209465.75  0.050891735 
   43500    305.36772   -111728.71   -110877.63   -135.21803    209384.87  0.050911393 
   43600    297.58943   -111710.16   -110880.77   -187.42364    209288.81  0.050934761 
   43700    293.39645    -111700.8   -110883.09     117.0317    209180.33  0.050961176 
   43800    291.81802   -111696.08   -110882.77    417.29973    209035.28  0.050996538 
   43900    290.68561   -111692.74   -110882.58   -317.16664    208886.72  0.051032806 
   44000    297.77704   -111708.65   -110878.73    337.15596    208754.16  0.051065213 
   44100    290.48836   -111680.84   -110871.23    178.92278    208645.99  0.051091685 
   44200    295.47772    -111683.9   -110860.38   -545.19629    208510.09  0.051124987 
   44300    301.44292   -111686.01   -110845.87    242.74166    208336.11   0.05116768 
   44400    309.59026   -111696.47   -110833.62   -252.66889    208140.37  0.051215798 
   44500    311.93478   -111692.65   -110823.27    447.08581    207895.38  0.051276154 
   44600    300.32981   -111653.57   -110816.54    269.11749    207643.42  0.051338374 
   44700    289.37969   -111618.59   -110812.07     97.46809    207406.15  0.051397104 
   44800    301.86861   -111651.84   -110810.52   -355.03152    207184.17   0.05145217 
   44900    322.96841   -111712.35   -110812.22   -280.54273    206923.78  0.051516918 
   45000    313.26246   -111690.36   -110817.28    339.13239    206656.45  0.051583559 
   45100    301.60673   -111667.11   -110826.52    401.44501    206436.81  0.051638443 
   45200    292.23168   -111652.53   -110838.07    448.33324    206250.78  0.051685019 
   45300    306.11372   -111702.81   -110849.66    -264.8545    206094.09  0.051724314 
   45400    300.23294   -111696.47    -110859.7    56.729327    205939.21  0.051763213 
   45500    287.22819   -111669.73   -110869.21   -118.35295    205820.55  0.051793057 
   45600     294.2821   -111696.62   -110876.44    178.02317    205683.23  0.051827634 
   45700    294.01119   -111699.76   -110880.34    251.90554    205529.98  0.051866281 
   45800    297.47214   -111709.66   -110880.59   -196.28716    205382.69  0.051903476 
   45900    293.12207    -111697.6   -110880.65   -353.65772     205247.7  0.051937611 
   46000    304.32542   -111727.89   -110879.72   -9.0176176    205101.36  0.051974668 
   46100    297.02188   -111706.75   -110878.93    273.99005     204959.3  0.052010694 
   46200    292.84614   -111692.36   -110876.18   -244.57686    204843.07  0.052040206 
   46300    293.72497   -111693.61   -110874.98    417.61702    204730.12  0.052068915 
   46400     282.3142   -111658.16   -110871.33    12.733078    204616.63  0.052097795 
   46500    296.74897   -111693.74   -110866.69    167.73126    204513.51  0.052124065 
   46600    302.81685   -111704.93   -110860.97    43.157312     204428.7  0.052145689 
   46700    299.39001   -111689.89   -110855.47    -169.6944    204340.28  0.052168252 
   46800    301.37344   -111690.74   -110850.79    525.73792    204247.58   0.05219193 
   46900    295.92295   -111670.64   -110845.89    24.619985     204154.4  0.052215751 
   47000    306.99625   -111697.27   -110841.66    201.72047    204045.34  0.052243661 
   47100    304.11428   -111684.52   -110836.94    -408.7385     203945.8  0.052269158 
   47200    301.52282   -111672.77    -110832.4    224.36549    203814.19   0.05230291 
   47300    298.24497   -111661.44   -110830.21    64.204899    203664.52  0.052341348 
   47400    291.65267   -111639.95   -110827.09    184.92056    203528.98  0.052376204 
   47500    301.30984   -111662.92   -110823.15    -147.9427    203419.56  0.052404378 
   47600    311.40399   -111684.08   -110816.18    124.50475    203305.27  0.052433836 
   47700    304.53418    -111656.8   -110808.04    40.470297    203180.26  0.052466097 
   47800    307.47538   -111655.53   -110798.58    80.012188     203011.6  0.052509686 
   47900    315.39344   -111669.64   -110790.62    156.50338    202799.49  0.052564606 
   48000    306.99333   -111642.25   -110786.64   -317.11488    202546.06  0.052630377 
   48100    308.51237   -111646.34    -110786.5    -308.3563       202287  0.052697778 
   48200    311.91282    -111658.6   -110789.28    96.981702    202068.17  0.052754848 
   48300    311.61719    -111665.5      -110797    135.57719    201893.57  0.052800469 
   48400    307.36598   -111665.41   -110808.76    324.69107    201750.65  0.052837875 
   48500    298.35118   -111656.08   -110824.55   -49.130649    201598.62   0.05287772 
   48600     307.0631   -111695.42   -110839.62    426.00703    201406.08   0.05292827 
   48700    305.02057   -111701.36   -110851.25    -69.62783    201213.89  0.052978825 
   48800    296.13889   -111684.79   -110859.44    283.77632     201028.4  0.053027709 
   48900    309.87669    -111729.9   -110866.26   -55.784653     200830.8  0.053079882 
   49000    293.94976   -111690.84   -110871.58   -152.30914    200622.62  0.053134961 
   49100    297.16255   -111704.55   -110876.34   -19.760057    200438.17   0.05318386 
   49200    307.49184   -111737.35   -110880.35    211.87881    200261.53  0.053230769 
   49300    291.79738   -111697.41   -110884.15    -352.0529    200094.66  0.053275162 
   49400    289.86537   -111693.79   -110885.92    388.63674    199915.01  0.053323036 
   49500    282.86275   -111673.02   -110884.66     506.6877    199764.65  0.053363171 
   49600    293.13641   -111697.81   -110880.82   -64.607478    199635.88  0.053397593 
   49700    296.10119   -111699.83   -110874.57    392.18463    199491.74  0.053436173 
   49800    304.44286    -111711.7    -110863.2    118.85102    199356.69  0.053472374 
   49900    304.53222   -111696.38   -110847.63   -310.44682    199255.82  0.053499444 
   50000    299.58619    -111663.8   -110828.83     380.1747     199157.1  0.053525962 
   50100    314.28974   -111689.63   -110813.69    112.31908    199054.06  0.053553671 
   50200    313.68626   -111679.66    -110805.4   -70.792873    198948.67  0.053582039 
   50300    307.19443   -111658.94   -110802.77     216.7436     198853.3  0.053607738 
   50400    312.77219   -111675.49   -110803.77   -549.71208    198752.83  0.053634836 
   50500    293.86831   -111626.19   -110807.17    325.90396     198610.2  0.053673352 
   50600    296.10441   -111635.91   -110810.65    312.90727    198480.05  0.053708547 
   50700    295.82696   -111639.37   -110814.89     10.23755    198371.39  0.053737969 
   50800     298.9656   -111652.12   -110818.89   -382.29226    198290.19  0.053759973 
   50900    300.18205   -111660.28   -110823.66   -553.29927       198230  0.053776296 
   51000    293.12906   -111644.94   -110827.98    2.1270607    198163.76  0.053794274 
   51100     301.7214   -111674.51    -110833.6    -147.4934    198084.89  0.053815693 
   51200    307.56523   -111699.36   -110842.16    54.670972    197985.42   0.05384273 
   51300    309.24639   -111713.79    -110851.9   -157.10515    197863.11  0.053876012 
   51400    301.59044   -111701.46   -110860.91    590.57768    197722.88  0.053914222 
   51500    296.77286    -111697.7   -110870.58    38.911061    197599.46  0.053947896 
   51600    292.50708   -111696.82   -110881.59    385.63661    197495.75  0.053976226 
   51700    291.17106   -111703.21    -110891.7    238.18046    197407.24  0.054000427 
   51800    295.79651   -111724.86   -110900.46   -150.83425     197326.1  0.054022632 
   51900    293.47624   -111724.56   -110906.62     243.4598    197246.56  0.054044416 
   52000    291.48028   -111725.03   -110912.65   -348.22899    197156.62  0.054069073 
   52100    289.53524   -111724.28   -110917.33     312.2706    197074.28  0.054091661 
   52200     292.7025    -111737.8   -110922.02    32.782271    196987.29  0.054115548 
   52300    282.41505   -111710.02   -110922.91    313.56347    196871.54  0.054147367 
   52400    285.52499   -111713.12   -110917.35   -25.839724    196757.14  0.054178849 
   52500    296.15135   -111731.89    -110906.5    107.16877     196649.8  0.054208421 
   52600    296.29511   -111717.93   -110892.14   -96.561195     196567.5  0.054231119 
   52700    295.58686   -111699.76   -110875.94    10.807377    196509.19   0.05424721 
   52800    291.86783   -111673.93   -110860.48    62.520219    196460.44  0.054260673 
   52900    292.80176   -111662.94   -110846.88    183.19135    196414.35  0.054273403 
   53000    294.48327   -111656.11   -110835.37    -132.0752    196394.92  0.054278774 
   53100    307.96266   -111685.37   -110827.06    118.91062    196406.02  0.054275706 
   53200    300.29406   -111656.16   -110819.22    199.73031    196414.96  0.054273235 
   53300    306.30603   -111667.58   -110813.89    66.155046    196406.31  0.054275626 
   53400    311.27316    -111680.2   -110812.66     31.52483    196388.33  0.054280595 
   53500    310.25746   -111679.69   -110814.99    187.68348    196355.61  0.054289639 
   53600    306.44362   -111674.15   -110820.07    77.336467    196327.77  0.054297339 
   53700    299.93886   -111663.34    -110827.4     136.0761    196279.22  0.054310768 
   53800    310.67276   -111701.63   -110835.76   -336.51139    196220.89  0.054326913 
   53900    296.02282   -111671.24   -110846.21   -125.20202    196146.48  0.054347525 
   54000    303.85056   -111703.93   -110857.08    205.04676    196068.07  0.054369259 
   54100    301.37771    -111706.5   -110866.54   -81.533427    195979.03  0.054393959 
   54200    292.10791   -111688.45   -110874.33   -66.173865    195900.72  0.054415703 
   54300    292.66324   -111695.04   -110879.37    373.80323    195796.79  0.054444587 
   54400    295.04092   -111703.65   -110881.36    137.11033    195683.82  0.054476018 
   54500    297.22993   -111710.53   -110882.13    31.993715    195569.52  0.054507856 
   54600    295.25151   -111704.97   -110882.09   -189.78502    195451.95  0.054540645 
   54700    284.97069   -111672.33    -110878.1    105.55141    195303.73  0.054582038 
   54800    286.74969   -111670.31   -110871.12   -343.71285    195151.87  0.054624509 
   54900     294.1538   -111679.15   -110859.33   -218.27385    195026.28  0.054659686 
   55000    310.60924   -111706.87   -110841.18   -130.03026    194922.56  0.054688771 
   55100     311.3326   -111690.76   -110823.06   -147.84799    194825.85  0.054715919 
   55200    298.59929   -111641.08   -110808.87   -86.621648    194689.93  0.054754118 
   55300    306.69961   -111655.75   -110800.96   -449.06851    194529.65  0.054799233 
   55400    303.55694   -111643.52   -110797.49   -310.72821    194369.07  0.054844504 
   55500    313.92294   -111673.47   -110798.55    155.01388    194198.26  0.054892744 
   55600    319.89675   -111693.02   -110801.45   -77.766104    194051.09  0.054934375 
   55700    306.31383   -111661.14   -110807.42    346.68844    193931.47  0.054968258 
   55800    298.23926   -111646.33   -110815.12    370.56879    193850.82  0.054991129 
   55900     289.4098    -111629.6      -110823    636.22785    193769.34  0.055014253 
   56000    298.90246   -111664.03   -110830.97   -250.64355    193676.36  0.055040663 
   56100    300.93388   -111678.85   -110840.13    117.13517    193578.87  0.055068382 
   56200    294.02251   -111667.49   -110848.04   -492.93705    193456.02  0.055103353 
   56300    287.76918   -111656.22   -110854.19    471.48885    193341.08  0.055136112 
   56400    298.17547   -111689.56   -110858.53   -263.62451    193268.68  0.055156766 
   56500    300.52435   -111699.43   -110861.86   -3.6812941    193226.29  0.055168866 
   56600    296.02931   -111687.45    -110862.4   -280.46174    193196.02  0.055177511 
   56700    303.36093   -111709.28    -110863.8    268.90968     193198.2  0.055176889 
   56800    289.21885   -111669.57    -110863.5   -149.84308    193197.14   0.05517719 
   56900    297.23255   -111690.89   -110862.48   -196.20983    193186.93  0.055180106 
   57000    294.19188   -111677.62   -110857.69    298.93498    193182.39  0.055181402 
   57100     295.4738   -111670.52   -110847.01    115.14736    193198.72   0.05517674 
   57200    312.27365   -111700.99   -110830.66   -145.99281    193213.34  0.055172563 
   57300    306.61784   -111667.91   -110813.35    374.20205     193226.3  0.055168862 
   57400    304.55357    -111646.5    -110797.7   -550.14954    193258.98  0.055159534 
   57500    301.43297    -111628.8   -110788.69   -31.504769     193290.3  0.055150596 
   57600    314.57333   -111660.92   -110784.19    100.55777    193315.17  0.055143501 
   57700    303.77049   -111630.48   -110783.86    104.77097    193314.34  0.055143737 
   57800    296.85447   -111612.72   -110785.36   -199.41523    193307.79  0.055145606 
   57900    303.38729   -111633.77   -110788.22   -370.41638    193280.72  0.055153331 
   58000     309.9447   -111658.78   -110794.95   -174.51227    193200.44  0.055176248 
   58100    309.49373   -111667.62   -110805.05    491.54866    193073.51   0.05521252 
   58200    297.86211   -111648.81   -110818.65   0.94511695    192944.86  0.055249336 
   58300    307.27502   -111688.66   -110832.27   -172.70183    192830.25  0.055282173 
   58400    302.79391   -111687.73   -110843.83    346.41355    192724.64  0.055312468 
   58500     295.6203   -111674.09   -110850.17   -141.98916    192622.69  0.055341743 
   58600    297.49847   -111683.36   -110854.21    831.43381    192505.89  0.055375321 
   58700    298.52526   -111687.74   -110855.73    206.76292    192395.83  0.055406997 
   58800    309.41354   -111720.03   -110857.68    312.88691    192302.31  0.055433944 
   58900    304.03598   -111706.59   -110859.23   -218.52566    192231.44  0.055454379 
   59000    302.85232   -111704.18   -110860.11    436.93183    192130.37  0.055483552 
   59100     298.2075   -111691.92    -110860.8    155.69726    192035.43  0.055510982 
   59200    293.18114   -111679.14   -110862.03    35.995307    191973.29  0.055528951 
   59300    293.26021    -111679.4   -110862.06     -136.616    191930.37  0.055541368 
   59400    290.73325   -111672.15   -110861.86    77.960647    191910.11  0.055547232 
   59500    299.31387   -111693.06   -110858.85    -146.0467    191880.51    0.0555558 
   59600    299.07745   -111689.39   -110855.85     32.36797    191852.81  0.055563823 
   59700    286.66555   -111648.61   -110849.66   -369.26263    191824.58  0.055571999 
   59800    294.76626   -111661.05   -110839.52     112.2442    191774.63  0.055586473 
   59900    314.17474   -111702.11   -110826.49    303.66007     191700.3  0.055608027 
   60000    304.76912   -111660.07   -110810.66    413.11628    191612.54  0.055633495 
   60100    308.16613   -111656.03   -110797.15   -519.00369    191560.95  0.055648479 
   60200    302.96245   -111631.43   -110787.06    86.608259    191527.29  0.055658259 
   60300    309.32725   -111645.06   -110782.94    156.88814    191504.67  0.055664834 
   60400    311.46955   -111653.32   -110785.24    163.89292    191472.88  0.055674075 
   60500     306.4103   -111645.48    -110791.5   -324.01556     191406.6  0.055693353 
   60600    306.66095    -111655.3   -110800.62   -2.7669292    191329.32  0.055715849 
   60700    298.44336   -111645.04   -110813.26   -238.12643    191249.74  0.055739031 
   60800     309.9071   -111689.83    -110826.1    -167.3868    191156.26  0.055766291 
   60900    303.73175   -111684.52      -110838     234.6495    191033.19  0.055802216 
   61000    300.56087   -111683.69   -110846.01   -165.83891    190916.05  0.055836456 
   61100    293.67056   -111670.13   -110851.65   -225.31133    190809.97  0.055867495 
   61200    300.22599   -111692.03   -110855.28    281.38709    190693.49  0.055901623 
   61300    300.60177   -111696.52   -110858.72    395.66247    190588.48  0.055932423 
   61400    305.94216   -111713.78    -110861.1    81.507625    190504.67   0.05595703 
   61500    297.64142   -111692.53   -110862.99   -267.68915    190421.89  0.055981355 
   61600    294.53715   -111685.19    -110864.3   -90.880825    190330.65   0.05600819 
   61700    287.26813   -111664.68   -110864.05    773.77056    190238.69  0.056035265 
   61800    296.91744   -111690.25   -110862.73   -338.08596    190176.76  0.056053513 
   61900    301.69105    -111700.4   -110859.57    90.784339    190132.71    0.0560665 
   62000    310.94592   -111722.34   -110855.72   -144.16634    190121.26  0.056069874 
   62100    296.77552   -111678.87   -110851.74    190.44616    190092.44  0.056078376 
   62200    295.87049   -111669.62   -110845.02   -140.08118     190058.2  0.056088479 
   62300    301.61658   -111677.87   -110837.25   -111.93594    190012.84  0.056101869 
   62400    305.95557   -111677.48   -110824.77    135.53922    189939.58  0.056123507 
   62500    299.82903      -111645   -110809.36    158.84732    189857.29  0.056147832 
   62600    309.16813   -111656.57    -110794.9   -350.04863    189783.92   0.05616954 
   62700    310.48895   -111649.31   -110783.96    227.66831    189738.45  0.056182999 
   62800    310.75416   -111644.73   -110778.64   -15.650152    189719.92  0.056188488 
   62900    323.27508   -111680.06   -110779.08   -575.52795    189701.96  0.056193808 
   63000    310.60351   -111651.63   -110785.96    530.94592    189642.09  0.056211548 
   63100    313.55953   -111670.06   -110796.15   -462.25935    189577.86  0.056230592 
   63200    316.20719   -111690.69   -110809.41    528.71595    189482.01  0.056259036 
   63300    304.62603   -111672.01      -110823   -84.582916    189386.12  0.056287521 
   63400    307.94239   -111691.46    -110833.2    320.30003    189252.68  0.056327209 
   63500    297.31542   -111669.79   -110841.16    47.725688    189092.97  0.056374784 
   63600    299.00489   -111679.77   -110846.43    247.17984    188909.43  0.056429556 
   63700    304.19488   -111698.08   -110850.27    169.91505    188737.63  0.056480923 
   63800    305.74364   -111705.24   -110853.11   -201.91233    188578.95  0.056528447 
   63900    299.67734   -111690.98   -110855.76     227.4479    188425.91  0.056574359 
   64000    291.05203   -111667.78    -110856.6   -170.15461    188327.25  0.056603999 
   64100    293.99398   -111676.09   -110856.72   -254.74214    188246.31  0.056628336 
   64200    301.09321   -111695.74   -110856.57    702.83145    188173.51  0.056650244 
   64300    302.09384   -111696.27   -110854.32    -25.93372     188106.7  0.056670365 
   64400    303.74751   -111699.59   -110853.03   -173.51952    188042.67  0.056689662 
   64500    299.39625   -111685.88   -110851.44    544.42593     187968.2  0.056712121 
   64600    287.76545   -111651.08   -110849.07       839.49    187893.01  0.056734817 
   64700    294.39478   -111666.61   -110846.11    415.72035    187852.23  0.056747131 
   64800    295.89758   -111665.76   -110841.07    510.06224    187830.74  0.056753626 
   64900    292.19031   -111647.07   -110832.72   -659.43516    187813.51  0.056758831 
   65000    300.60369   -111660.97   -110823.17   -157.86264    187799.22  0.056763149 
   65100    317.94232   -111698.11   -110811.99    400.69466    187793.69  0.056764821 
   65200    303.64926    -111647.7   -110801.41    454.23612    187809.07  0.056760174 
   65300    314.29355   -111669.55   -110793.59   -53.075485    187852.82  0.056746954 
   65400    308.80644    -111648.2   -110787.54    -187.7886    187902.58  0.056731927 
   65500    307.99183      -111643   -110784.61    38.403227    187976.07  0.056709746 
   65600    312.47182   -111656.32   -110785.44    57.360771    188048.45   0.05668792 
   65700    306.83074   -111646.82   -110791.66    310.87382    188098.31  0.056672891 
   65800      302.843   -111648.16   -110804.12    105.17344    188099.23  0.056672614 
   65900    305.96269   -111675.01   -110822.28    181.45123    188073.29  0.056680433 
   66000    298.28563   -111671.07   -110839.73   -32.183312    188076.21  0.056679553 
   66100    298.18041   -111683.26   -110852.21    103.15276    188105.57  0.056670706 
   66200    297.97523   -111688.91   -110858.43   -118.70477    188140.89  0.056660067 
   66300     289.2517   -111667.87   -110861.71     -413.464    188121.11  0.056666023 
   66400    297.25859   -111690.97    -110862.5    371.55814    188077.97  0.056679022 
   66500    300.60047   -111700.33   -110862.54   -91.015645     188014.9  0.056698034 
   66600    286.14596   -111657.85   -110860.34    316.32293    187944.37  0.056719313 
   66700    299.32776   -111690.98   -110856.74   -382.17848    187872.25  0.056741084 
   66800    301.15766   -111693.11   -110853.77   -408.44572    187788.89  0.056766272 
   66900    299.78555   -111684.81   -110849.29    188.59338    187717.03  0.056788005 
   67000    317.06658   -111728.46   -110844.78    55.260557    187651.37  0.056807875 
   67100    303.03991   -111685.62   -110841.03   -244.49072    187585.36  0.056827863 
   67200    297.35436    -111665.2   -110836.46   -95.667106    187517.99   0.05684828 
   67300    289.82226   -111639.64   -110831.89    421.99877    187461.24  0.056865491 
   67400    307.77849   -111685.77   -110827.97   -14.694016    187406.79  0.056882012 
   67500    308.11865    -111679.1   -110820.35   -14.608449    187355.67  0.056897533 
   67600    304.83877   -111662.45   -110812.84    107.59114    187303.08  0.056913508 
   67700    308.13312   -111661.68    -110802.9   -158.27743    187245.96   0.05693087 
   67800    306.43763   -111647.64   -110793.58   -166.96841    187164.57  0.056955627 
   67900    306.05305   -111640.81   -110787.83   -54.616764    187050.97  0.056990218 
   68000    310.95748   -111650.36   -110783.71   -139.97578    186902.35  0.057035534 
   68100    311.34599   -111651.17   -110783.43   -296.28571    186715.65  0.057092565 
   68200    306.88903   -111641.66   -110786.35    348.31389    186551.94  0.057142667 
   68300    304.84611   -111643.07   -110793.44   -114.33915    186432.77  0.057179193 
   68400    302.56868   -111649.03   -110805.76   -614.21324    186353.98  0.057203368 
   68500    291.59086    -111633.4   -110820.72   -181.70249    186291.85  0.057222447 
   68600    293.77999   -111654.76   -110835.98   -109.47762    186220.78  0.057244284 
   68700    299.51301   -111683.08   -110848.32    217.07041     186145.5  0.057267436 
   68800     298.4049   -111688.09   -110856.42   -107.00175     186082.9    0.0572867 
   68900    288.67934   -111667.35   -110862.78    -37.38218    186078.15  0.057288162 
   69000    293.39905   -111682.78   -110865.06    -39.54111    186098.63  0.057281859 
   69100    302.27693   -111708.62   -110866.16   -76.479358    186129.25  0.057272435 
   69200    304.42356   -111714.33   -110865.89   -307.88821    186178.57  0.057257264 
   69300    294.28193   -111684.97   -110864.79   -235.73663    186223.62  0.057243413 
   69400     294.5023    -111682.9   -110862.11   -220.93862    186256.21  0.057233397 
   69500    294.43575   -111678.46   -110857.85   -73.682953    186287.08  0.057223912 
   69600    296.19154   -111677.37   -110851.87    387.64095    186324.69  0.057212361 
   69700    306.59201   -111699.23   -110844.74   -394.21214    186383.29  0.057194371 
   69800    298.25648   -111667.01   -110835.75   -300.49324    186426.28  0.057181183 
   69900    298.01604    -111655.1   -110824.51    33.937214    186423.21  0.057182126 
   70000    302.87578    -111654.7   -110810.57   -16.571831    186413.03  0.057185249 
   70100    310.64919   -111659.89   -110794.09   -607.20801    186421.75  0.057182574 
   70200     308.0402   -111637.48   -110778.95   -142.97267    186414.64  0.057184753 
   70300    317.20722    -111652.4   -110768.32    179.17273    186383.75  0.057194231 
   70400    311.08571   -111631.82   -110764.81     291.9368    186334.26  0.057209423 
   70500     318.2688   -111652.78   -110765.75   -64.959197     186283.9   0.05722489 
   70600    308.77203   -111631.78   -110771.22   -33.235499    186268.11   0.05722974 
   70700    308.15594   -111637.93   -110779.08   -76.392765    186283.68  0.057224956 
   70800    317.29566   -111672.03   -110787.71   -79.039066    186299.08  0.057220226 
   70900     308.1041   -111654.35   -110795.65   -212.51003       186271  0.057228852 
   71000    309.34278   -111665.26    -110803.1    260.97854    186229.48  0.057241611 
   71100    298.24451   -111642.14   -110810.92    243.86182    186172.25  0.057259208 
   71200    302.17597    -111659.8   -110817.62   -195.68005    186088.73  0.057284905 
   71300     300.5052   -111663.03    -110825.5   -253.05748    185993.76  0.057314155 
   71400    306.18869   -111687.09   -110833.72    26.916571    185878.53  0.057349686 
   71500    296.94174   -111670.22   -110842.63   -364.80368    185785.85  0.057378296 
   71600    290.22741   -111659.75   -110850.87    283.99007    185711.47  0.057401278 
   71700    297.87645   -111687.35   -110857.16   -412.67492    185655.82  0.057418482 
   71800    296.99457   -111689.82   -110862.08   -111.17826    185601.11  0.057435408 
   71900     297.7803   -111695.52   -110865.59    -439.1777    185556.81  0.057449121 
   72000    299.16235   -111703.01   -110869.23   -186.49956    185544.71  0.057452866 
   72100    308.59054   -111732.06      -110872    306.51897    185534.03  0.057456174 
   72200      291.975   -111687.46   -110873.71   -174.26881    185556.64  0.057449173 
   72300    278.38317   -111649.01   -110873.14    227.89395     185604.7  0.057434296 
   72400    294.05631   -111688.21   -110868.66    244.73149    185657.14  0.057418075 
   72500    301.48668   -111699.97   -110859.71   -538.12868    185721.17  0.057398279 
   72600    299.89266   -111681.97   -110846.16    -435.6301     185753.8  0.057388197 
   72700    305.05897   -111679.55   -110829.33    352.39013    185762.88  0.057385391 
   72800    303.63965   -111660.71   -110814.45    14.640607    185780.67  0.057379896 
   72900    312.03455   -111672.56    -110802.9   -89.592885     185795.1  0.057375439 
   73000    313.61046   -111669.54   -110795.49    121.82602    185780.87  0.057379834 
   73100    304.64613      -111641   -110791.93    150.30757    185785.25  0.057378482 
   73200    307.14486   -111646.64   -110790.61    -393.4052    185815.31  0.057369199 
   73300    308.36279   -111652.01   -110792.59   -323.59715    185829.28  0.057364887 
   73400    301.94831   -111636.84   -110795.29    15.123397    185797.49  0.057374699 
   73500    309.79533    -111662.2   -110798.79   -151.95284    185731.21  0.057395174 
   73600    308.42513   -111666.58   -110806.98     74.45677     185636.7  0.057424395 
   73700    306.62128   -111672.03   -110817.46    331.04013    185489.14  0.057470077 
   73800    303.73075   -111677.58   -110831.06    246.35191    185334.73  0.057517958 
   73900    315.09475   -111724.51   -110846.32    487.06233    185164.59  0.057570809 
   74000    300.23934   -111696.52   -110859.73    592.02746    184973.24  0.057630365 
   74100    302.28505   -111711.17   -110868.68    -441.1822    184765.84  0.057695055 
   74200    295.94255   -111698.75   -110873.94   -29.071563     184544.3  0.057764316 
   74300    288.93824   -111681.21   -110875.92   -460.61729    184304.32  0.057839532 
   74400    293.34091   -111693.39   -110875.83    387.30901    184074.99  0.057911591 
   74500    291.48348   -111687.29   -110874.91   -64.883462     183857.8      0.05798 
   74600    286.28142   -111670.63   -110872.75   -172.41486    183683.75   0.05803494 
   74700    297.57361   -111698.52   -110869.16    223.09736    183561.13  0.058073709 
   74800    294.14919   -111683.27   -110863.46   -590.47024    183480.75  0.058099149 
   74900    299.65793   -111691.15   -110855.99    156.15842    183413.29  0.058120517 
   75000    302.07213    -111688.7    -110846.8    391.97816    183338.67  0.058144173 
   75100    295.91008   -111662.04   -110837.33    193.32048    183275.91  0.058164084 
   75200    305.03054   -111678.88   -110828.74   -6.7989759    183233.58  0.058177521 
   75300    292.36796   -111635.82   -110820.97    202.88865    183210.19  0.058184947 
   75400     308.8002   -111677.16   -110816.51    201.24364    183224.39  0.058180438 
   75500     306.8489   -111667.56   -110812.36    656.71549    183224.06  0.058180545 
   75600    298.95672   -111643.63   -110810.42    -271.5051    183226.16  0.058179876 
   75700    301.66332   -111651.85    -110811.1    16.117892     183196.6  0.058189266 
   75800    293.18126   -111632.83   -110815.72   -163.62991    183161.59  0.058200387 
   75900     304.6964   -111675.69   -110826.48   -499.64216       183102  0.058219329 
   76000    307.50589    -111701.6   -110844.56   -233.97551    183018.01  0.058246045 
   76100    294.43922   -111686.59   -110865.97   -114.17149    182907.62    0.0582812 
   76200    289.48174   -111688.52   -110881.72    665.85703    182766.14  0.058326314 
   76300    288.72842   -111694.27   -110889.56   -310.65265    182622.78  0.058372101 
   76400    288.05472   -111695.06   -110892.23    188.70445    182470.43  0.058420836 
   76500    289.37762    -111695.9   -110889.39    -399.1246    182317.45  0.058469858 
   76600    296.98622   -111714.46   -110886.74     19.68602     182142.8  0.058525921 
   76700    302.04148    -111724.9   -110883.09    62.120502    181970.11  0.058581463 
   76800    296.23708   -111703.28   -110877.65   -637.33686    181814.95  0.058631456 
   76900    291.64998   -111681.71   -110868.86    522.86943     181653.1  0.058683697 
   77000    302.72055   -111702.68   -110858.98   -457.51363    181475.17  0.058741234 
   77100    309.31336   -111711.75   -110849.68    316.02482    181271.98  0.058807077 
   77200    298.78271    -111674.5   -110841.78   -405.18965    181067.11  0.058873615 
   77300    306.80913   -111689.63   -110834.53   -296.55524    180893.17  0.058930226 
   77400    321.61527   -111725.76    -110829.4   -110.48526    180762.19  0.058972927 
   77500    291.00087   -111636.52   -110825.49     97.00744    180657.86  0.059006983 
   77600    303.44858    -111669.7   -110823.97    566.30069    180562.77  0.059038059 
   77700    321.04002   -111719.85   -110825.09    148.67484    180483.19   0.05906409 
   77800    311.01276   -111696.25   -110829.44   -109.41309    180416.82  0.059085818 
   77900    293.61453   -111656.33   -110838.01    191.76181    180364.55  0.059102942 
   78000    296.26777   -111679.27   -110853.56    508.30876    180311.97  0.059120177 
   78100    286.50857   -111675.18   -110876.67   -215.80063    180253.18  0.059139456 
   78200    290.66715   -111708.31    -110898.2   -45.383762    180181.88   0.05916286 
   78300    296.81703   -111736.98   -110909.74     97.79229    180136.94  0.059177621 
   78400    288.63334   -111718.32   -110913.88    -99.26173    180106.38  0.059187662 
   78500    289.53991   -111720.43   -110913.47   -300.20649    180092.55  0.059192205 
   78600    287.33454   -111710.18   -110909.37   -99.816069     180092.5  0.059192223 
   78700    282.62419   -111688.16   -110900.47   -72.819901     180096.3  0.059190972 
   78800    293.84422   -111707.12   -110888.16   -216.09649    180071.35  0.059199174 
   78900    303.08146    -111719.8   -110875.09   -14.793698    180031.96  0.059212127 
   79000    294.85927   -111685.67   -110863.88   -60.968175    180008.33  0.059219901 
   79100     291.2687    -111666.7   -110854.92    258.49205    179989.73  0.059226019 
   79200    297.43954   -111675.33   -110846.35    218.07751    179950.26  0.059239011 
   79300    286.20064   -111637.56    -110839.9     278.3411    179858.22  0.059269326 
   79400    301.90892    -111676.8   -110835.36   -165.26118    179726.58  0.059312737 
   79500    299.13139   -111666.34   -110832.64    726.25722    179580.39  0.059361021 
   79600    310.87958   -111697.02   -110830.58   -78.745605    179445.89  0.059405514 
   79700    303.66613   -111676.66   -110830.33    -512.2604    179296.31  0.059455074 
   79800    304.35013   -111679.22   -110830.97   -156.39691    179138.58  0.059507425 
   79900    305.37282    -111684.2   -110833.11    97.223271    178988.37  0.059557362 
   80000     300.9674   -111675.39   -110836.58   -16.673629    178826.44  0.059611293 
   80100     288.4943   -111646.44   -110842.39   -77.531107    178661.85  0.059666209 
   80200    297.74529   -111678.56   -110848.73   -70.625989    178473.55  0.059729162 
   80300    290.10879   -111665.66   -110857.11    145.96411    178277.65  0.059794794 
   80400    307.83931   -111725.56    -110867.6    867.75687    178091.01  0.059857461 
   80500    280.76694   -111661.29   -110878.78   -367.19796    177953.28  0.059903788 
   80600    290.30844   -111696.69   -110887.58    198.19111    177839.59  0.059942081 
   80700    293.52826   -111711.14   -110893.06   -65.429043    177752.88  0.059971322 
   80800    291.79852   -111709.76    -110896.5   -145.86226    177669.81  0.059999364 
   80900    295.79531   -111721.69   -110897.29   -15.051904    177579.68  0.060029815 
   81000    292.02907   -111709.83   -110895.93     97.45584    177475.44  0.060065074 
   81100    296.10883   -111717.47   -110892.19   -433.71315    177367.52   0.06010162 
   81200    292.69171   -111700.03   -110884.28    216.31783    177273.49  0.060133501 
   81300    291.30801   -111685.09   -110873.19    184.55371    177185.73  0.060163283 
   81400    291.44483   -111670.04   -110857.77   -201.14035    177111.15  0.060188619 
   81500    308.98736   -111702.15   -110840.98    254.02674    177035.25  0.060214423 
   81600    300.73855   -111666.32   -110828.14    169.86701    176954.65   0.06024185 
   81700    302.63908   -111663.18   -110819.71    574.25179    176866.55  0.060271855 
   81800    302.09376   -111657.02   -110815.06    348.57766    176774.49  0.060303244 
   81900    311.16321   -111679.11   -110811.88   -32.843526     176699.8  0.060328736 
   82000    307.45432   -111668.76   -110811.87    168.12897    176654.82  0.060344097 
   82100    298.75385   -111645.49   -110812.84   -56.879078    176633.62   0.06035134 
   82200     298.4244   -111645.81   -110814.08   -462.91635    176612.13  0.060358681 
   82300    304.77171   -111665.89   -110816.47   -100.00995    176559.44  0.060376696 
   82400    296.35837   -111646.69   -110820.72   -125.70236     176480.2  0.060403805 
   82500    293.81015   -111643.79   -110824.93   -28.457794    176360.58  0.060444775 
   82600    295.69493   -111654.25   -110830.14   -255.51985    176211.37  0.060495957 
   82700    296.69565   -111665.81    -110838.9    -452.4156    176060.59  0.060547764 
   82800    294.22811   -111671.93    -110851.9    163.97459    175914.65  0.060597997 
   82900    291.87869   -111681.81   -110868.33   -645.38105    175788.28  0.060641558 
   83000    290.94882   -111695.54   -110884.65    79.676924    175657.03   0.06068687 
   83100    300.47512    -111732.3   -110894.86    176.64943    175519.56  0.060734401 
   83200    281.30708   -111685.35   -110901.33    14.222447    175365.94  0.060787603 
   83300     279.7292   -111682.77   -110903.15    596.91767    175220.13  0.060838188 
   83400     288.0259   -111703.51   -110900.76    440.78534    175094.41  0.060881872 
   83500    299.02044   -111728.67   -110895.28   -388.28923    174992.03  0.060917492 
   83600    292.61201   -111705.02   -110889.49   -212.53064    174874.62  0.060958392 
   83700    293.37634   -111700.83   -110883.17    357.38469    174693.92  0.061021444 
   83800    299.30475    -111709.2   -110875.02   -325.58438    174487.68  0.061093571 
   83900    287.59411   -111670.91   -110869.37     541.6111    174259.93  0.061173416 
   84000    296.12813   -111689.89   -110864.57   -243.03079     174056.4  0.061244948 
   84100    292.80182   -111676.29   -110860.23   -4.9208751    173857.34  0.061315071 
   84200     293.8863   -111675.59   -110856.51   -66.028794    173665.95  0.061382646 
   84300    291.60888      -111666   -110853.27   -324.21937    173468.88   0.06145238 
   84400    311.19236   -111715.89   -110848.58    121.98867    173243.05  0.061532486 
   84500    304.94365   -111694.02   -110844.12     444.5273    173015.01  0.061613588 
   84600    302.27902   -111682.61   -110840.14    16.954134    172807.93  0.061687421 
   84700    298.44883   -111669.21   -110837.42    126.33948    172623.73  0.061753244 
   84800    296.69906   -111661.14   -110834.22    303.24657    172469.21  0.061808571 
   84900    301.48555   -111673.45   -110833.19   -212.30004    172328.45  0.061859058 
   85000    292.08683   -111648.02   -110833.96   -53.446045    172166.16  0.061917367 
   85100    307.25993   -111691.75    -110835.4    201.30824    171997.59   0.06197805 
   85200    312.27764   -111709.58   -110839.25    26.752425    171844.22  0.062033367 
   85300    303.80153   -111693.59   -110846.88   -458.18663     171712.4  0.062080988 
   85400    302.56539   -111701.59   -110858.32    178.65775    171600.94   0.06212131 
   85500    286.02366    -111669.4   -110872.24    381.31329    171512.55  0.062153324 
   85600    294.67563   -111706.85   -110885.58   -45.607584    171455.33  0.062174067 
   85700    285.97552   -111692.75   -110895.71    300.38456    171425.02  0.062185061 
   85800    298.56469   -111733.16   -110901.04   -80.421264    171383.88  0.062199987 
   85900    286.42246   -111701.21   -110902.93   -280.46273    171346.76  0.062213464 
   86000    298.74659   -111734.72   -110902.09    273.71277     171300.9  0.062230119 
   86100    281.15889   -111681.61   -110898.01   -27.770609    171239.39  0.062252472 
   86200    299.22511   -111724.38   -110890.43    420.36699    171170.23  0.062277627 
   86300    298.97611   -111713.23   -110879.97   -146.93119    171092.06   0.06230608 
   86400    302.18122   -111709.56   -110867.36   -621.08205    170983.88  0.062345499 
   86500    298.50498   -111687.15    -110855.2   -399.34514    170794.29  0.062414705 
   86600     303.9251   -111693.18   -110846.12   -349.10174    170528.46  0.062512002 
   86700    300.37879   -111676.31   -110839.14   -112.85272    170239.37  0.062618156 
   86800    298.76653   -111667.78    -110835.1   -12.177066     169945.7  0.062726362 
   86900     295.2856   -111655.06   -110832.08   -188.63803    169651.84  0.062835013 
   87000    294.70974   -111652.56   -110831.19    543.96309    169351.39  0.062946487 
   87100    302.22853   -111675.49   -110833.16   -7.4769147    169022.24  0.063069069 
   87200    301.80743   -111675.43   -110834.27    149.49956    168666.16  0.063202219 
   87300    311.64223   -111705.38   -110836.82   -185.52484    168283.79  0.063345826 
   87400    303.28535   -111686.06   -110840.79    51.450952    167877.29  0.063499209 
   87500    306.30933   -111699.72   -110846.02    380.00301     167468.1  0.063654362 
   87600    300.95587   -111691.13   -110852.34    107.03219     167106.5  0.063792104 
   87700     301.2002   -111699.37    -110859.9   -203.79736    166819.02  0.063902038 
   87800    304.58547   -111716.54   -110867.64    207.47442    166563.38  0.064000116 
   87900    299.41882   -111708.02   -110873.53   -529.55771    166314.63  0.064095835 
   88000    288.12048   -111682.42   -110879.41    713.74938    166060.16  0.064194055 
   88100     289.3979   -111690.02   -110883.45   -184.03874    165831.17  0.064282699 
   88200    294.68595   -111709.07   -110887.76   -203.50502     165640.2  0.064356815 
   88300    300.39029   -111729.69   -110892.48    434.65827    165494.08  0.064413636 
   88400    295.84379   -111719.44   -110894.91    -29.02373    165379.69   0.06445819 
   88500     291.3676    -111708.6   -110896.54   -109.87291     165278.6  0.064497615 
   88600    287.21067      -111698   -110897.53     244.6088    165176.25   0.06453758 
[...]
  978700    278.77967    -111834.7   -111057.73    -5336.144    9377.7725    1.1367385 
  978800    285.50236   -111867.68   -111071.97    -5635.584    9370.1106     1.137668 
  978900    285.00369   -111875.99   -111081.67     733.5062    9360.9437    1.1387821 
  979000    279.33319   -111864.27   -111085.75   -7645.9275     9351.148     1.139975 
  979100    285.00395   -111877.49   -111083.17     -6893.52    9341.3012    1.1411767 
  979200    284.43515   -111869.12   -111076.38   -9412.2921    9330.4217    1.1425074 
  979300    289.50212    -111870.3   -111063.44    1274.0808    9318.6947    1.1439451 
  979400    300.30128   -111883.87   -111046.92     1138.493    9307.2764    1.1453485 
  979500    301.76377   -111874.65   -111033.61    10821.944    9296.4899    1.1466775 
  979600    296.12344   -111849.56   -111024.25   -9097.6921    9286.9096    1.1478604 
  979700    290.75682   -111827.82   -111017.46    5087.0043    9275.2754    1.1493001 
  979800    303.14074   -111854.45   -111009.58    5099.0724    9261.7864     1.150974 
  979900    301.28441   -111841.44   -111001.75   -10933.337    9248.3862    1.1526417 
  980000    309.23519   -111857.25   -110995.39    3242.8373    9236.6339    1.1541082 
  980100    298.04102   -111820.52   -110989.87   -1289.7466    9226.3316    1.1553969 
  980200    297.76604   -111816.24   -110986.35   -845.61089    9216.3249    1.1566514 
  980300     314.2342    -111857.1   -110981.31   -10806.177    9205.5554    1.1580046 
  980400    300.44712   -111816.93   -110979.57    -6985.288    9194.8602    1.1593515 
  980500    308.41628   -111838.37   -110978.79   -1567.1992    9184.6043    1.1606461 
  980600    311.08471   -111847.19   -110980.18   -4961.0596    9175.1024    1.1618481 
  980700    296.23761   -111808.04   -110982.41    2416.2808    9164.2665    1.1632219 
  980800    307.44301   -111842.18   -110985.32   -2538.4684    9153.8778     1.164542 
  980900    294.03401   -111810.59    -110991.1    2082.7327    9144.7158    1.1657088 
  981000    302.21222   -111842.32   -111000.03   -4824.2131    9136.6828    1.1667337 
  981100     298.0229   -111842.82   -111012.21    9784.3008    9127.8967    1.1678567 
  981200    303.01939    -111871.2   -111026.66   -10189.005    9119.2935    1.1689585 
  981300    290.57268    -111850.1   -111040.26   -6429.1332    9111.0273     1.170019 
  981400    297.16188   -111878.83   -111050.63   -959.65247    9104.9135    1.1708047 
  981500    302.44737   -111900.25   -111057.32    3709.3022    9100.8513    1.1713273 
  981600    292.50938   -111877.42   -111062.18    987.66574    9098.8215    1.1715886 
  981700    286.98987   -111863.91   -111064.05    988.03677    9097.4464    1.1717657 
  981800    283.99013   -111855.07   -111063.57    5176.0277    9096.3505    1.1719068 
  981900    291.19132   -111869.93   -111058.36    1789.0112    9096.2469    1.1719202 
  982000    295.84112   -111875.89   -111051.36   -4327.6883    9097.2156    1.1717954 
  982100     299.1066   -111874.09   -111040.47   -5971.8586     9099.093    1.1715536 
  982200    294.88248   -111851.81   -111029.96    6136.2911    9102.6795     1.171092 
  982300    297.55522   -111848.15   -111018.85    3882.9952    9107.8074    1.1704327 
  982400     302.4423   -111852.25   -111009.32   -3353.2312    9113.0303    1.1697619 
  982500    309.18638   -111865.81   -111004.09   -4285.5856    9117.2825    1.1692163 
  982600    298.86309    -111836.9   -111003.95    1427.7592    9119.6879    1.1689079 
  982700    304.51556    -111852.6    -111003.9    1377.3389    9120.3022    1.1688292 
  982800    297.65608    -111832.8   -111003.22    1185.4196    9119.1954     1.168971 
  982900    301.35724   -111841.36   -111001.46    1018.9549    9118.2076    1.1690977 
  983000     305.7774   -111854.71   -111002.49    2183.3999    9119.0758    1.1689864 
  983100    304.13881   -111851.76   -111004.11   -3638.1482    9120.6517    1.1687844 
  983200    296.46598   -111832.65   -111006.38    13339.415    9122.7164    1.1685199 
  983300     306.9805   -111864.86   -111009.29   -1875.9807    9126.8011    1.1679969 
  983400    301.85062    -111854.4   -111013.13   -8981.4322    9131.1163    1.1674449 
  983500    300.71975   -111855.38   -111017.26   -216.97799    9134.5744     1.167003 
  983600    298.72335    -111854.4   -111021.84   -1512.6238    9136.1903    1.1667966 
  983700    285.82879   -111823.48   -111026.86   -11461.723    9137.4604    1.1666344 
  983800    296.83054   -111857.21   -111029.93    2191.6741    9139.3711    1.1663905 
  983900    299.82482   -111867.61   -111031.98    8008.4406    9142.3196    1.1660143 
  984000    290.77899   -111842.81   -111032.39   -540.66443    9146.1116    1.1655309 
  984100    296.87454   -111858.65   -111031.25    6212.4045    9149.3185    1.1651223 
  984200    296.43433   -111853.33   -111027.15   -5202.6494     9151.742    1.1648138 
  984300    302.54405   -111864.96   -111021.75    4534.8951    9152.8134    1.1646774 
  984400    291.98304   -111828.47   -111014.69    3689.1662    9153.1508    1.1646345 
  984500    310.88258   -111871.38   -111004.93    6578.4678    9152.1592    1.1647607 
  984600    305.54894   -111846.28    -110994.7    711.41833    9152.5077    1.1647163 
  984700    310.76219   -111849.99   -110983.88    7360.4076     9154.481    1.1644653 
  984800    308.23163   -111834.49   -110975.43    1712.5784    9156.8962    1.1641582 
  984900     297.0939   -111798.51   -110970.49    -7484.407    9158.4642    1.1639588 
  985000    307.81302   -111825.57   -110967.68   -9112.2289    9159.2191    1.1638629 
  985100    297.00389   -111795.29   -110967.52    4390.5463    9159.7271    1.1637984 
  985200    301.30795   -111810.07   -110970.31    -3774.559    9161.3587    1.1635911 
  985300     310.5794   -111841.22   -110975.62    8169.0471    9164.1092    1.1632419 
  985400     309.0426   -111845.04   -110983.72   -657.89228    9167.2562    1.1628425 
  985500     303.4954   -111841.97   -110996.11     1754.753    9169.0895      1.16261 
  985600    296.22096   -111837.12   -111011.53   -8057.7193    9170.1235    1.1624789 
  985700    305.64636   -111879.85      -111028   -933.70646    9170.7157    1.1624039 
  985800    289.04447   -111846.69    -111041.1   -2329.5007    9173.7016    1.1620255 
  985900    287.48659    -111849.2   -111047.96    7898.0649    9179.1467    1.1613362 
  986000    290.04404    -111859.9   -111051.53    3084.4285    9185.3974    1.1605459 
  986100    295.45603   -111875.13   -111051.67    5962.8072    9191.8649    1.1597293 
  986200    294.73707   -111871.83   -111050.38    -5270.484    9198.5087    1.1588917 
  986300    298.94264   -111880.95   -111047.78   -5289.7214    9203.9452    1.1582072 
  986400    290.27457    -111853.8   -111044.79    -1210.055    9207.5938    1.1577482 
  986500    295.27503    -111864.4   -111041.45    180.00576    9210.6084    1.1573693 
  986600    299.59829   -111872.09   -111037.09     3125.057    9213.3016     1.157031 
  986700    298.03172   -111860.96   -111030.33   -4160.7039    9216.4548    1.1566351 
  986800    292.09926    -111835.3    -111021.2   -4991.2739    9218.4154    1.1563891 
  986900    299.25861   -111843.05      -111009   -11685.492    9219.7054    1.1562273 
  987000    294.51251   -111817.63    -110996.8   -1953.1238    9218.9333    1.1563242 
  987100    298.22447   -111817.43   -110986.26   -1010.2606     9217.958    1.1564465 
  987200    309.06525   -111840.43   -110979.05   -4844.8369    9217.1601    1.1565466 
  987300     305.5981   -111827.29   -110975.57    -6593.022    9215.0679    1.1568092 
  987400    301.67084   -111816.34   -110975.56   -8612.5426     9211.996     1.157195 
  987500    305.02701   -111826.55   -110976.42     1301.234    9208.9314    1.1575801 
  987600    304.16233   -111823.56   -110975.85    2952.9232    9206.5212    1.1578831 
  987700    306.47615   -111831.74   -110977.57     763.6447    9204.6218     1.158122 
  987800    302.63106   -111824.75    -110981.3   -1281.4974    9203.6165    1.1582485 
  987900    297.02031   -111813.89   -110986.07     4819.011    9203.2098    1.1582997 
  988000    298.24212   -111821.27   -110990.05     1908.589    9203.7532    1.1582313 
  988100    308.74988    -111854.1   -110993.59     1054.933    9204.9243     1.158084 
  988200    302.43089    -111842.5   -110999.61   -2649.8256    9207.0928    1.1578112 
  988300    299.07799   -111840.74   -111007.19   -2991.5408    9207.7868     1.157724 
  988400    287.33782    -111817.3   -111016.48    3717.5448    9208.3853    1.1576487 
  988500    297.47232   -111854.47    -111025.4   -6597.8852    9209.3704    1.1575249 
  988600    291.33495   -111846.68   -111034.72   -6446.8749    9210.0636    1.1574378 
  988700    286.94412   -111843.69   -111043.96   -5357.8341    9210.2475    1.1574146 
  988800     288.2311   -111855.96   -111052.64   -9293.7963       9210.7    1.1573578 
  988900    297.18078   -111887.99   -111059.73    5097.1745    9211.5928    1.1572456 
  989000    291.61997   -111881.44   -111068.68   -2965.3848    9211.1134    1.1573058 
  989100    290.02969   -111888.33      -111080   -105.48307    9209.1702      1.15755 
  989200     290.6841    -111902.4   -111092.25    14383.881    9207.2994    1.1577852 
  989300    297.79858   -111933.19   -111103.21    821.40458    9205.9829    1.1579508 
  989400    281.34705   -111894.79   -111110.66    2130.2806    9205.0627    1.1580666 
  989500    286.16322   -111912.77   -111115.22   -3350.8726    9204.8995    1.1580871 
  989600    281.42233    -111898.9   -111114.56   -4403.3295    9203.5549    1.1582563 
  989700    286.93335   -111906.26   -111106.56   -6555.1834    9200.1637    1.1586832 
  989800    276.77182   -111862.15   -111090.77    5256.2624    9196.4944    1.1591455 
  989900    281.66516   -111853.68   -111068.67    5013.3485    9194.3903    1.1594108 
  990000     276.4926   -111821.95   -111051.35   -2462.0603    9194.6815    1.1593741 
  990100    295.35246   -111860.92   -111037.75    5591.9289    9197.2565    1.1590495 
  990200     293.9626   -111847.91   -111028.61   -833.30768    9201.8288    1.1584736 
  990300    304.66622   -111869.05   -111019.92    3030.8089    9207.3903    1.1577738 
  990400    296.86157    -111839.8   -111012.43   -3333.8247    9212.8674    1.1570855 
  990500    309.03099   -111866.85   -111005.56    -825.5973    9218.4679    1.1563826 
  990600    300.58718   -111837.55    -110999.8   -859.86662    9225.2392    1.1555338 
  990700    301.61067   -111836.79   -110996.19    5410.5596    9233.4518     1.154506 
  990800    306.88537   -111849.54   -110994.24   -4246.1412    9243.8868    1.1532027 
  990900    307.83399   -111849.29   -110991.34    6875.2342    9254.2007    1.1519175 
  991000    303.03341   -111834.38   -110989.81    -3425.934    9264.5919    1.1506255 
  991100    306.93421      -111845   -110989.56   -6870.8972    9274.9679    1.1493382 
  991200    311.12356   -111857.18   -110990.06   -6450.4383    9283.8283    1.1482413 
  991300    304.63769   -111842.16   -110993.12     714.0752    9289.8354    1.1474988 
  991400    296.59774   -111824.92   -110998.28    2239.2125    9293.6156    1.1470321 
  991500    303.19613   -111850.58   -111005.56   -1741.8547    9296.4105    1.1466872 
  991600    302.46582   -111855.31   -111012.32   -3087.6352    9298.8873    1.1463818 
  991700    290.56922   -111829.93    -111020.1     3968.748    9299.8069    1.1462685 
  991800    292.02221    -111841.8   -111027.92    -5602.708    9299.3277    1.1463275 
  991900    290.09645   -111842.49   -111033.98    1136.7555    9298.0706    1.1464825 
  992000    290.12284   -111845.47   -111036.88   -4421.8424    9296.8911     1.146628 
  992100    298.04719   -111868.11   -111037.43    424.46033     9295.473    1.1468029 
  992200    299.84573   -111870.24   -111034.56    7432.3132    9294.6317    1.1469067 
  992300    294.85323    -111851.4   -111029.63   -1723.6216    9293.3393    1.1470662 
  992400    291.90397    -111836.1   -111022.55   -138.37311    9290.5041    1.1474163 
  992500    305.88819   -111865.66   -111013.14    1277.1033    9287.9982    1.1477258 
  992600    311.28018   -111869.33   -111001.77   -3147.3551    9284.9527    1.1481023 
  992700    295.33387   -111812.58   -110989.47   -1133.9319    9282.5372     1.148401 
  992800     293.2205   -111794.62   -110977.39    531.58914    9280.4962    1.1486536 
  992900     317.2427   -111849.77   -110965.59   -538.25598    9280.4617    1.1486579 
  993000    310.88838   -111821.97   -110955.51    2791.0731    9280.8683    1.1486075 
  993100    306.35338    -111804.4   -110950.57    2272.2163    9280.3746    1.1486687 
  993200    310.41022   -111814.36   -110949.23    2280.8804    9278.9225    1.1488484 
  993300    312.31877      -111820   -110949.55    333.64048     9277.965     1.148967 
  993400    314.73882   -111830.25   -110953.05   -3910.6847    9277.3263    1.1490461 
  993500    297.22593   -111788.18    -110959.8    377.18902    9276.8464    1.1491055 
  993600    306.68606   -111823.67   -110968.92   -1825.8145    9274.1987    1.1494336 
  993700    302.16678   -111823.46    -110981.3   -3608.8454    9269.7091    1.1499903 
  993800    304.94913    -111845.1   -110995.19    4130.7777    9264.4322    1.1506453 
  993900    296.85449   -111836.22   -111008.87    -3700.369    9259.1989    1.1512956 
  994000    284.78512   -111811.19   -111017.47   -6360.8206    9255.0131    1.1518163 
  994100    298.07687   -111852.13   -111021.37    2105.9313    9251.1464    1.1522978 
  994200    292.72168   -111839.66   -111023.83   -573.54045    9246.6092    1.1528632 
  994300    309.60357   -111887.85   -111024.96   -1932.0305     9241.155    1.1535436 
  994400    306.54908   -111880.94   -111026.57   -1861.7211    9236.0607    1.1541799 
  994500    297.05753   -111856.81    -111028.9   -309.19276    9231.3565     1.154768 
  994600    287.39149   -111830.33   -111029.35   -1600.6892    9227.1444    1.1552952 
  994700    300.09143   -111864.68   -111028.31   -4852.4773    9223.2638    1.1557812 
  994800    294.69524   -111845.58   -111024.25   -12607.008     9220.222    1.1561626 
  994900    305.50653   -111869.78   -111018.32    6847.4966    9217.1733     1.156545 
  995000    296.50314   -111835.73   -111009.36     2518.347    9214.2092     1.156917 
  995100    305.04204   -111851.44   -111001.27   -2280.5431    9210.8885    1.1573341 
  995200    304.66414   -111840.42    -110991.3   -4073.0285    9207.3146    1.1577833 
  995300     302.1196   -111825.26   -110983.24    3968.0489    9204.6226    1.1581219 
  995400    299.54168   -111810.19   -110975.35   -2260.1666    9202.0336    1.1584478 
  995500    306.16043   -111821.46   -110968.17   -6598.3868    9199.7004    1.1587416 
  995600    309.02539   -111823.42   -110962.15     5598.302    9197.9682    1.1589598 
  995700      298.709   -111790.12    -110957.6   -3815.9817    9196.3693    1.1591613 
  995800    315.82959   -111836.39   -110956.15   -1884.9647    9194.8248     1.159356 
  995900    310.55356    -111821.8   -110956.27    -5574.086    9193.0537    1.1595794 
  996000    310.42953   -111825.23   -110960.05   -869.35452    9191.2431    1.1598078 
  996100     311.0481   -111837.96   -110971.06   -3620.4999    9189.2839    1.1600551 
  996200    298.11679   -111819.32   -110988.45    8872.6735    9186.2991     1.160432 
  996300     291.5147   -111819.66   -111007.19   -912.96437    9183.2363     1.160819 
  996400    297.81639   -111851.82   -111021.79    10049.757     9180.633    1.1611482 
  996500    294.62176   -111852.93    -111031.8   -6074.0533    9178.8683    1.1613714 
  996600     289.2098   -111844.68   -111038.64    444.51211    9177.4121    1.1615557 
  996700    291.09869   -111853.38   -111042.07     14330.55    9176.0069    1.1617336 
  996800     306.8489   -111900.53   -111045.33   -2343.4401    9174.3776    1.1619399 
  996900    304.47296    -111895.4   -111046.82    -10496.64    9173.9427     1.161995 
  997000    296.36698   -111872.31   -111046.32   -1125.6852    9173.5359    1.1620465 
  997100    295.71549   -111869.81   -111045.63    6772.8596    9173.3623    1.1620685 
  997200    298.63103   -111873.48   -111041.18   -7453.4025    9174.1406    1.1619699 
  997300     296.1048    -111859.6   -111034.34   -7499.8107    9174.2606    1.1619547 
  997400    298.25168   -111858.35    -111027.1     3912.396    9172.2091    1.1622146 
  997500    296.90409   -111847.38   -111019.89     2777.311    9169.8111    1.1625185 
  997600    301.05539   -111850.61   -111011.55    1610.7603    9168.1742    1.1627261 
  997700    300.57431   -111839.84   -111002.12   -815.69053    9167.5009    1.1628115 
  997800    305.79685   -111841.44   -110989.17    4814.3015    9166.2291    1.1629728 
  997900    299.30826   -111811.91   -110977.72   -6998.3086    9166.3036    1.1629634 
  998000    305.58524   -111817.28    -110965.6    9527.4235    9166.5408    1.1629333 
  998100    304.04852   -111802.68   -110955.28    3706.3083      9166.94    1.1628826 
  998200    314.09664   -111823.86   -110948.46   -5972.1788    9168.8947    1.1626347 
  998300    301.55972   -111788.43   -110947.97    92.059926    9170.0429    1.1624891 
  998400    301.24296   -111790.62   -110951.04   -3364.6524     9171.432    1.1623131 
  998500    322.29848   -111856.05   -110957.79   -1377.4158    9173.0772    1.1621046 
  998600    305.51466   -111824.29   -110972.81   -15084.125    9173.8972    1.1620007 
  998700    300.42158   -111830.58   -110993.28    1426.2606     9173.277    1.1620793 
  998800     294.4763   -111833.51   -111012.79    57.072409    9172.9683    1.1621184 
  998900    298.83787    -111858.4   -111025.53    3811.1358    9174.3446    1.1619441 
  999000     304.5216   -111879.11   -111030.39    2936.1921    9176.9297    1.1616168 
  999100    296.18215      -111858   -111032.52    1041.8058    9180.7323    1.1611356 
  999200    291.97281   -111846.66   -111032.92   -1042.9922    9184.7364    1.1606294 
  999300    289.85993   -111839.48   -111031.63   -2668.1074    9187.9534    1.1602231 
  999400    307.07921   -111884.96   -111029.12   -1962.8129    9190.2417    1.1599342 
  999500    305.07575   -111875.71   -111025.44    2526.2346    9191.9795    1.1597149 
  999600     302.0308   -111862.94   -111021.16    1661.8006    9193.3723    1.1595392 
  999700    294.41151   -111836.61   -111016.07    218.39848    9195.9226    1.1592176 
  999800    301.76284   -111852.23    -111011.2    -3380.375     9201.937    1.1584599 
  999900    303.03733   -111847.92   -111003.34   -237.19574     9209.511    1.1575072 
 1000000     306.0918   -111846.82   -110993.72    11278.503     9216.137     1.156675 
Loop time of 104395 on 1 procs for 1000000 steps with 936 atoms

Performance: 0.207 ns/day, 115.995 hours/ns, 9.579 timesteps/s
100.0% CPU use with 1 MPI tasks x no OpenMP threads

MPI task timing breakdown:
Section |  min time  |  avg time  |  max time  |%varavg| %total
---------------------------------------------------------------
Pair    | 86100      | 86100      | 86100      |   0.0 | 82.47
Neigh   | 316.94     | 316.94     | 316.94     |   0.0 |  0.30
Comm    | 21.998     | 21.998     | 21.998     |   0.0 |  0.02
Output  | 2.9517     | 2.9517     | 2.9517     |   0.0 |  0.00
Modify  | 17952      | 17952      | 17952      |   0.0 | 17.20
Other   |            | 1.168      |            |       |  0.00

Nlocal:    936 ave 936 max 936 min
Histogram: 1 0 0 0 0 0 0 0 0 0
Nghost:    8872 ave 8872 max 8872 min
Histogram: 1 0 0 0 0 0 0 0 0 0
Neighs:    602164 ave 602164 max 602164 min
Histogram: 1 0 0 0 0 0 0 0 0 0

Total # of neighbors = 602164
Ave neighs/atom = 643.338
Neighbor list builds = 10000
Dangerous builds not checked

Please see the log.cite file for references relevant to this simulation

Total wall time: 28:59:55
