LAMMPS (09 Jan 2020)
package omp 0
WARNING: OpenMP support not enabled during compilation; using 1 thread only. (../fix_omp.cpp:125)
units			real
atom_style		charge
read_data input_files/d2600000_lmps.dat
  orthogonal box = (-15 -15 -15) to (50 50 50)
  1 by 1 by 1 MPI processor grid
  reading atoms ...
  936 atoms
  read_data CPU = 0.00131798 secs
reset_timestep		0

pair_style              reax/c lmp_control lgvdw yes
pair_coeff              * * ffield C H O N

neighbor		2.5 bin
neigh_modify		delay 0 every 5 check no

fix			qeq all qeq/reax 1 0.0 10.0 1e-6 reax/c
fix			bonds all reax/c/bonds 500 bonds.reaxc
fix			npt all npt temp 300 300 100 iso 1.0 1.0 2000
fix 1 all reax/c/species 10 10 100 species.out cutoff 1 4 0.25
WARNING: Resetting reneighboring criteria for fix reax/c/species (../fix_reaxc_species.cpp:97)


thermo			100
thermo_style            custom step temp pe etotal press vol density
thermo_modify           flush yes

timestep		0.25

dump			1 all custom 1000 dump/dump.reax.npt.* id type xu yu zu
restart			500 restart.npt300 restart.npt300
run 1000000
Last active /omp style is pair_style reax/c/omp
Neighbor list info ...
  update every 100 steps, delay 0 steps, check no
  max neighbors/atom: 2000, page size: 100000
  master list distance cutoff = 12.5
  ghost atom cutoff = 12.5
  binsize = 6.25, bins = 11 11 11
  2 neighbor lists, perpetual/occasional/extra = 2 0 0
  (1) pair reax/c/omp, perpetual
      attributes: half, newton off, ghost, omp
      pair build: half/bin/newtoff/ghost/omp
      stencil: half/ghost/bin/3d/newtoff
      bin: standard
  (2) fix qeq/reax/omp, perpetual, copy from (1)
      attributes: half, newton off, ghost
      pair build: copy
      stencil: none
      bin: none
Per MPI rank memory allocation (min/avg/max) = 69.42 | 69.42 | 69.42 Mbytes
Step Temp PotEng TotEng Press Volume Density 
       0            0   -111743.16   -111743.16   -23.648469       274625  0.038816842 
     100    146.90483   -112138.92   -111729.49    183.23385    274614.86  0.038818276 
     200    167.74246   -112175.71    -111708.2    53.566538    274607.11  0.038819372 
     300    175.60792   -112174.49   -111685.06    102.50729    274606.69  0.038819431 
     400    175.26361   -112144.63   -111656.16   -171.41051    274594.53  0.038821149 
     500    180.81706   -112128.88   -111624.94   -264.52407    274515.07  0.038832386 
     600    183.99669   -112103.79   -111590.99    223.44907     274354.1  0.038855171 
     700     194.7136   -112099.22   -111556.55   -282.53095    274166.17  0.038881805 
     800    195.79411   -112065.11   -111519.42    -42.11405    273959.17  0.038911183 
     900    212.87217   -112074.53   -111481.24   -172.56817    273776.66  0.038937123 
    1000    210.54118   -112028.55   -111441.76   -179.53378    273567.69  0.038966865 
    1100     207.3146   -111979.74   -111401.94     164.7266    273371.57  0.038994821 
    1200    233.18763    -112010.9   -111360.99    348.61922    273222.47  0.039016101 
    1300    237.70893   -111981.78   -111319.27    42.761206    273130.58  0.039029226 
    1400    241.96867   -111951.79   -111277.41    19.772517    273115.68  0.039031356 
    1500    251.54296    -111937.4   -111236.34   -1.6887424     273131.9  0.039029038 
    1600    251.85058    -111896.2   -111194.28   -59.435456    273148.18  0.039026712 
    1700    262.38511   -111883.89   -111152.61    122.82278    273177.14  0.039022575 
    1800    263.20292   -111846.16    -111112.6    411.90183    273250.59  0.039012085 
    1900    275.42844   -111840.73   -111073.09    353.26458    273356.92  0.038996911 
    2000    285.62577   -111831.61   -111035.55   -95.998016    273514.16  0.038974492 
    2100    284.60715   -111793.87   -111000.65    132.67516    273688.86  0.038949614 
    2200    296.20315   -111793.03   -110967.49   -225.92535    273867.42  0.038924219 
    2300    300.32369   -111773.96   -110936.94     169.8978    274001.73  0.038905139 
    2400    315.20039   -111786.42   -110907.94    47.315899    274127.18  0.038887334 
    2500    297.04487   -111711.66   -110883.78     26.16472    274287.06  0.038864668 
    2600    315.37757   -111741.16   -110862.19   -120.54334    274446.97  0.038842022 
    2700    304.39535   -111695.35   -110846.98    131.85478    274549.25  0.038827553 
    2800    304.49015   -111683.39   -110834.76    166.89379    274585.09  0.038822484 
    2900    310.00406    -111692.6    -110828.6  -0.45922267    274551.37  0.038827253 
    3000    315.13297   -111704.67   -110826.37    42.769072    274508.95  0.038833252 
    3100    320.17749   -111723.06    -110830.7    477.95889    274487.37  0.038836305 
    3200    298.35419   -111671.24   -110839.71   -329.19944    274514.16  0.038832515 
    3300    307.05874    -111707.8      -110852   -138.79972    274533.32  0.038829805 
    3400    306.85918   -111723.51   -110868.28   -127.41335    274561.66  0.038825797 
    3500    313.21806   -111760.21   -110887.25   -580.90627    274592.07  0.038821498 
    3600    295.73823    -111732.1   -110907.87   -221.55328    274537.15  0.038829263 
    3700    304.95052   -111776.12    -110926.2   -110.48167    274398.22  0.038848923 
    3800    298.41052   -111773.61   -110941.92    -280.0631    274231.16  0.038872589 
    3900    290.62289   -111767.31   -110957.33   -78.306054    274078.81  0.038894198 
    4000    290.56979   -111780.04    -110970.2   -223.92801    273909.88  0.038918185 
    4100    289.97322   -111786.79   -110978.62    340.76074    273749.14  0.038941037 
    4200     287.7471   -111787.46   -110985.49   -16.046002    273612.36  0.038960503 
    4300     298.0073   -111818.44   -110987.88   -331.20841    273466.32  0.038981309 
    4400    289.44508   -111794.51   -110987.81    293.32654    273321.05  0.039002029 
    4500    291.20582   -111794.39   -110982.78    240.45444    273168.45  0.039023816 
    4600    293.97323   -111793.66   -110974.34    192.24641    273038.33  0.039042413 
    4700    296.53568   -111790.16    -110963.7    142.61414    272953.24  0.039054585 
    4800    310.52603   -111817.18   -110951.73     277.1046    272957.84  0.039053927 
    4900    299.41934   -111773.81   -110939.31   -195.66703    272972.54  0.039051823 
    5000    300.57084   -111764.82   -110927.11   -11.606976    272970.08  0.039052175 
    5100    298.83776    -111748.7   -110915.83    260.25837    273015.99  0.039045609 
    5200    313.65269   -111781.03   -110906.87     249.7488    273120.25  0.039030703 
    5300    296.83547   -111727.59    -110900.3   -91.320869    273266.68  0.039009789 
    5400    311.64463   -111763.96   -110895.38    5.8596438    273376.12  0.038994171 
    5500    308.35045   -111751.44   -110892.05   -274.49074    273442.52  0.038984703 
    5600    306.24751    -111742.1   -110888.57    75.787486    273465.95  0.038981363 
    5700    303.60403   -111734.35   -110888.19    5.3431776     273461.7  0.038981968 
    5800    304.29094   -111737.05   -110888.97    66.751923    273465.49  0.038981428 
    5900    304.79195    -111741.7   -110892.23   -484.72538    273470.64  0.038980695 
    6000    297.22527   -111725.82   -110897.43    145.68841    273420.51  0.038987842 
    6100    292.45655   -111719.24   -110904.15   -130.89641    273343.53  0.038998821 
    6200    307.86171   -111767.85   -110909.83   -76.418731    273287.79  0.039006776 
    6300     318.2403   -111805.04   -110918.09   -292.06449    273265.33  0.039009982 
    6400    296.93749   -111752.13   -110924.55    101.29568    273224.22   0.03901585 
    6500    304.92644   -111779.12   -110929.28   -157.55647    273150.03  0.039026448 
    6600     291.2762    -111745.4    -110933.6    129.69279    273055.73  0.039039925 
    6700    294.16841   -111756.18   -110936.32   -30.492143    272967.36  0.039052565 
    6800    291.76763   -111750.09   -110936.91   -70.205702    272887.89  0.039063937 
    6900    303.07586   -111780.18   -110935.49    4.4440024    272763.39  0.039081768 
    7000    296.95127   -111758.92    -110931.3    223.57024    272604.74  0.039104512 
    7100    302.81065   -111771.38   -110927.43   -152.74085    272452.03   0.03912643 
    7200    301.59778   -111762.67    -110922.1    188.92397    272299.97   0.03914828 
    7300     309.1926   -111777.66   -110915.93    37.436852    272146.19    0.0391704 
    7400    314.28858   -111786.46   -110910.52    -52.09743    272005.21  0.039190702 
    7500     309.2078   -111766.06   -110904.28   -247.22197    271910.81  0.039204309 
    7600    305.11054   -111752.23   -110901.87     116.7584    271856.98  0.039212071 
    7700    293.61769   -111720.13    -110901.8   -257.54699    271868.06  0.039210473 
    7800    292.77057   -111717.95   -110901.98    38.254659    271876.86  0.039209205 
    7900    303.79462   -111751.42   -110904.72    102.99411    271914.26  0.039203811 
    8000    298.42779   -111738.81   -110907.07   -166.80174    271966.15  0.039196332 
    8100    297.72403   -111740.27    -110910.5   -98.510626    272008.53  0.039190225 
    8200    298.53313   -111747.48   -110915.46    380.47509     271985.3  0.039193571 
    8300    309.39568   -111782.81    -110920.5   -260.60238    271938.52  0.039200314 
    8400    302.53924   -111769.22   -110926.03   -62.835179    271888.13  0.039207579 
    8500    306.95714   -111787.23   -110931.72     46.24152    271874.24  0.039209583 
    8600    295.32921   -111759.35   -110936.25    78.610032    271880.17  0.039208727 
    8700    302.90173   -111782.72   -110938.51   -228.28226    271879.04   0.03920889 
    8800    300.91599   -111777.82   -110939.14    123.32436    271823.11  0.039216957 
    8900    299.28622   -111774.01   -110939.89    -35.53298    271791.05  0.039221584 
    9000    282.50059   -111726.57   -110939.23    346.58969    271785.44  0.039222393 
    9100    295.58783   -111760.98   -110937.16   -36.497936    271797.47  0.039220657 
    9200    296.38503   -111759.67   -110933.63    61.999399     271792.1  0.039221432 
    9300    306.36232   -111781.63   -110927.78    312.82735    271758.39  0.039226297 
    9400    301.14764    -111760.6   -110921.29     25.03608    271704.92  0.039234017 
    9500    299.26459   -111748.84   -110914.77   -294.11485    271644.34  0.039242767 
    9600    305.40897   -111759.29   -110908.09   -177.92166    271554.42  0.039255761 
    9700     311.3206   -111772.61   -110904.94    66.042994    271443.86   0.03927175 
    9800    312.10058   -111771.59   -110901.74    384.75194    271362.16  0.039283573 
    9900    304.87763   -111749.38   -110899.67    52.160696    271274.79  0.039296226 
   10000    296.78006   -111726.26   -110899.12    -298.0129    271173.05  0.039310969 
   10100    304.93789   -111749.18    -110899.3    182.48632    271057.16  0.039327777 
   10200     299.0881   -111734.33   -110900.75   -104.49244    270931.72  0.039345985 
   10300    309.30626    -111764.6   -110902.55   -96.755243    270776.43  0.039368549 
   10400    304.19514   -111753.53   -110905.72   -213.99132    270596.23  0.039394767 
   10500    304.47024   -111758.44   -110909.87    294.10103    270408.19  0.039422162 
   10600    308.89928   -111775.06   -110914.14    58.097263    270203.11  0.039452083 
   10700    305.36069   -111770.88   -110919.82    361.05341    270004.67  0.039481078 
   10800     302.6209   -111769.21   -110925.78   -33.323817    269831.42  0.039506427 
   10900    294.63763   -111752.99   -110931.82   -58.649382    269674.57  0.039529406 
   11000    297.98088   -111767.59    -110937.1   -2.7395068    269511.19  0.039553368 
   11100    303.87506   -111786.76   -110939.84   -180.10825    269402.65  0.039569304 
   11200     306.0561   -111795.22   -110942.22    12.033151    269330.91  0.039579844 
   11300     304.2896   -111790.17    -110942.1     2.836503    269278.36  0.039587567 
   11400    299.48598   -111776.52   -110941.83    -178.8435    269188.47  0.039600788 
   11500     290.0672   -111749.63    -110941.2    143.07274    269094.32  0.039614643 
   11600    293.54513   -111757.07   -110938.94    103.10786    269028.41  0.039624348 
   11700    286.12925   -111731.41   -110933.95   -177.01775    268994.21  0.039629386 
   11800    299.25324   -111761.66   -110927.63   -148.97803    269015.96  0.039626182 
   11900    297.24847   -111749.45      -110921    92.529986    269049.48  0.039621246 
   12000     302.3255   -111755.44   -110912.84     68.79483    269010.15  0.039627038 
   12100    305.48302   -111757.98   -110906.58   -47.105581    268924.81  0.039639613 
   12200    301.91215   -111742.65    -110901.2    127.14331    268829.24  0.039653705 
   12300    305.38878   -111747.16   -110896.02    108.88523    268726.87  0.039668811 
   12400    307.51171   -111748.34   -110891.29   -312.55159    268610.82  0.039685949 
   12500    308.56332   -111748.93   -110888.95    5.7619173    268490.26  0.039703769 
   12600    301.46278   -111726.06   -110885.87    91.966704    268341.75  0.039725743 
   12700    305.99771   -111737.63    -110884.8    203.96112    268198.77  0.039746921 
   12800    300.21279   -111723.23   -110886.52    4.8104234    268103.24  0.039761083 
   12900    308.30971   -111747.33   -110888.05   -105.34282    268079.45  0.039764612 
   13000    302.29772   -111734.08   -110891.56    274.98926    268083.29  0.039764043 
   13100    296.85493    -111723.9   -110896.54    114.27892    268066.61  0.039766517 
   13200    298.18288   -111733.69   -110902.64    124.12641    268025.94  0.039772551 
   13300    296.15474   -111735.29   -110909.89   -82.862696    267938.43  0.039785541 
   13400    299.09681   -111752.03   -110918.43    218.36187    267784.78  0.039808369 
   13500    294.63701   -111748.85   -110927.68   -22.915591    267603.23  0.039835376 
   13600    288.69675   -111741.41    -110936.8   -83.324542    267436.41  0.039860225 
   13700    290.22174   -111755.02   -110946.16   -233.09893    267218.19  0.039892776 
   13800    290.30049    -111764.1   -110955.01   -49.685783    266924.71  0.039936638 
   13900    299.47152   -111795.85   -110961.21   -74.116187    266597.21  0.039985697 
   14000    290.62003    -111776.1   -110966.13     100.2819    266328.83  0.040025991 
   14100    286.04822   -111765.15   -110967.92   -2.4604722    266108.42  0.040059143 
   14200    293.52868   -111785.11   -110967.03   -271.69154    265929.85  0.040086043 
   14300    300.11041   -111800.99   -110964.57    261.65116    265747.63  0.040113529 
   14400    302.91234   -111802.29   -110958.05   -144.11147    265569.88  0.040140377 
   14500    291.33144   -111758.79   -110946.84    -113.3365    265357.56  0.040172496 
   14600    312.30711   -111800.85   -110930.43    27.810328    265126.62  0.040207488 
   14700    301.62965   -111753.68   -110913.02  0.058441725    264856.06  0.040248561 
   14800    304.13096   -111745.85   -110898.22    278.17199    264540.19   0.04029662 
   14900    315.32311   -111767.71   -110888.88   -191.72957    264269.13  0.040337951 
   15000    312.79256   -111756.14   -110884.37    369.74081    264010.94    0.0403774 
   15100    302.84592   -111727.04   -110882.99    57.805282    263811.23  0.040407967 
   15200    303.21106   -111729.57   -110884.51   -145.96568    263646.89  0.040433154 
   15300    308.49425    -111748.3   -110888.51   -111.41773    263458.26  0.040462104 
   15400     307.5863   -111752.83   -110895.56    133.20357    263238.48  0.040495886 
   15500    309.10446   -111767.87   -110906.37   -156.70363    263038.96  0.040526603 
   15600    305.29323   -111768.03   -110917.16    75.562181    262865.86   0.04055329 
   15700    296.67673   -111755.96    -110929.1   -385.83578    262693.27  0.040579933 
   15800    299.54009   -111773.24   -110938.41   -138.19041    262477.54  0.040613286 
   15900    290.10366   -111753.07   -110944.54    109.10956    262239.78  0.040650108 
   16000    291.32312   -111759.43    -110947.5   -42.494539    262027.49  0.040683041 
   16100    293.05069   -111764.95    -110948.2   -21.222187    261788.93  0.040720115 
   16200    305.41289   -111797.48   -110946.27   -258.52076    261534.36   0.04075975 
   16300    289.13731   -111750.06   -110944.21    172.87105    261216.43   0.04080936 
   16400    284.35072    -111733.4    -110940.9   -23.178621    260845.14  0.040867448 
   16500    301.02415   -111775.34   -110936.37    89.186149    260439.87  0.040931042 
   16600    298.42786   -111762.51   -110930.77   -182.33381    260071.86  0.040988962 
   16700    309.38874   -111786.81   -110924.53   -68.416608    259737.22  0.041041771 
   16800    301.59269   -111761.13   -110920.58   -413.71101    259364.42  0.041100763 
   16900    299.09014   -111750.91   -110917.32   -396.01642    258926.67  0.041170249 
   17000    301.19495   -111753.28   -110913.83   -154.67336    258423.37  0.041250431 
   17100    295.35398   -111733.56    -110910.4   -33.459382    257871.67  0.041338684 
   17200    300.75111   -111746.05   -110907.84    146.97241    257325.59  0.041426409 
   17300    297.92743   -111737.04    -110906.7   -43.586604    256771.68  0.041515776 
   17400    306.72486   -111759.53   -110904.67    18.509661    256224.33  0.041604462 
   17500    305.60466   -111756.35   -110904.61    296.11059    255692.74  0.041690958 
   17600    302.49236   -111747.94   -110904.87   -155.90287    255192.68  0.041772653 
   17700    301.46358   -111745.71   -110905.51    218.99814    254741.27  0.041846676 
   17800    298.56041   -111739.81   -110907.71   -66.994982    254339.26  0.041912819 
   17900    304.25227   -111757.39   -110909.42    37.573728    253943.08  0.041978208 
   18000    287.61307   -111713.52   -110911.93     54.80138    253534.52  0.042045854 
   18100    296.34411   -111739.84   -110913.91   -113.86756    253121.33  0.042114488 
   18200    299.62722   -111749.43   -110914.35    -290.4239    252727.27  0.042180154 
   18300    308.58216   -111773.73   -110913.69   -257.19166    252387.03  0.042237018 
   18400    301.51238   -111753.61   -110913.28    367.38278    252059.06  0.042291975 
   18500    297.03354   -111742.22   -110914.37   -35.855682    251734.08  0.042346572 
   18600    299.31766   -111748.14   -110913.93    166.61806    251390.03  0.042404527 
   18700    297.48028    -111741.7    -110912.6    65.586246    251058.55  0.042460515 
   18800    300.86637   -111749.53   -110910.99    63.790953    250713.95  0.042518875 
   18900    299.36251   -111741.93   -110907.59   -66.184694     250344.3  0.042581658 
   19000    298.84698    -111737.7    -110904.8    100.39839    249945.65  0.042649573 
   19100    307.77598   -111760.54   -110902.75    51.172106    249545.29  0.042717998 
   19200    294.14933   -111720.99   -110901.18    311.17603    249107.37  0.042793096 
   19300    303.16979   -111744.08   -110899.13    -96.38666    248689.66  0.042864972 
   19400    295.07654   -111719.39      -110897   -248.21352    248259.69  0.042939211 
   19500    301.47379   -111733.53   -110893.31   -195.68676    247836.92  0.043012459 
   19600    311.44156   -111758.14   -110890.13    198.91393    247400.04  0.043088414 
   19700    293.17418   -111705.93   -110888.83    224.62002    246973.08  0.043162904 
   19800    301.01633   -111727.55    -110888.6    235.21068    246577.38  0.043232171 
   19900    311.53726   -111757.42   -110889.15   -125.36418    246202.66  0.043297971 
   20000    306.70272   -111746.32   -110891.52    67.452053    245791.92  0.043370325 
   20100    309.08487   -111759.71   -110898.27    229.42033    245365.94  0.043445619 
   20200     305.6404   -111760.41   -110908.58     776.5207    244958.85  0.043517821 
   20300    296.83891   -111748.17   -110920.87    465.19505    244591.78   0.04358313 
   20400    299.78684   -111769.16   -110933.64    72.251233    244225.81  0.043648438 
   20500    297.56632   -111773.41   -110944.08   -248.48626    243870.43  0.043712046 
   20600    292.38172   -111766.19   -110951.31     70.67099     243531.6  0.043772862 
   20700    297.37155   -111785.97   -110957.18    53.893188    243243.75  0.043824662 
   20800    289.43054   -111767.69   -110961.03   -154.66676    242946.97  0.043878198 
   20900    285.08473   -111758.01   -110963.46    105.09873    242601.17  0.043940742 
   21000    300.86574   -111802.77   -110964.24    267.66091    242223.64  0.044009228 
   21100    294.62927    -111783.4   -110962.25   -279.81766    241887.77  0.044070336 
   21200    293.57041   -111775.57   -110957.37    7.5144815     241572.4  0.044127869 
   21300    288.04266   -111751.88   -110949.09    -229.3733    241250.04  0.044186833 
   21400    297.29267   -111764.64   -110936.07   -203.41416     240910.7  0.044249074 
   21500     305.7646   -111770.03   -110917.85    25.463991    240598.46  0.044306498 
   21600    298.48989   -111731.55   -110899.64   -105.08054    240340.83  0.044353992 
   21700    304.81944   -111736.35    -110886.8    187.60483    240130.17  0.044392902 
   21800    316.46025   -111760.52   -110878.53    112.73205    239963.95  0.044423653 
   21900    313.86467   -111751.32   -110876.56    234.10988    239856.35  0.044443581 
   22000    320.29579   -111770.49   -110877.81   -148.91301    239799.65   0.04445409 
   22100    305.30678   -111732.61    -110881.7   -553.66117    239758.09  0.044461797 
   22200    316.75089   -111770.88   -110888.08   -140.60811    239644.16  0.044482933 
   22300    301.67721   -111736.49    -110895.7   -208.89669    239446.55  0.044519645 
   22400    303.78297   -111750.15   -110903.49    -76.17284     239191.8  0.044567061 
   22500    297.61646   -111740.04   -110910.57   -99.788412    238901.58  0.044621201 
   22600    300.52398    -111754.8   -110917.22   -4.5602827    238619.19  0.044674007 
   22700     290.2332   -111731.15   -110922.25   -21.782963    238348.74  0.044724698 
   22800      299.815   -111760.94   -110925.33   -23.114582    238066.33  0.044777753 
   22900    309.20082   -111788.51   -110926.75   -241.08007    237768.62   0.04483382 
   23000    296.46124    -111755.9   -110929.64    41.694264    237444.45  0.044895029 
   23100    294.65958    -111751.8   -110930.57    158.14617    237069.09  0.044966112 
   23200    298.03051   -111762.17   -110931.55    95.620406    236633.48  0.045048889 
   23300     310.6429   -111796.06   -110930.28   -204.14486    236165.65  0.045138129 
   23400     303.3823      -111772   -110926.45    67.906099    235660.29  0.045234925 
   23500    300.58779   -111756.22   -110918.46    44.095713    235147.95  0.045333482 
   23600    297.42387   -111734.79   -110905.86    178.00609    234671.59  0.045425504 
   23700    299.98379   -111727.44   -110891.37    172.63425     234266.4  0.045504074 
   23800    304.91285   -111727.68   -110877.87    95.254818     233921.8  0.045571106 
   23900    313.69734   -111741.07   -110866.78    572.77811    233605.63  0.045632784 
   24000    307.14549    -111715.3   -110859.27   -132.94604    233331.74  0.045686348 
   24100    311.29631   -111724.18   -110856.58    8.4135677    233064.95  0.045738646 
   24200    310.25114   -111721.04   -110856.35   -250.68635    232795.21  0.045791643 
   24300    305.15201   -111711.19   -110860.72   -149.30228    232571.97  0.045835598 
   24400    305.62693   -111719.81   -110868.01    12.060215    232402.05  0.045869111 
   24500    311.84756   -111746.87   -110877.73   -165.82291     232255.4  0.045898073 
   24600     309.6516    -111752.1   -110889.08   -279.93696    232072.91  0.045934165 
   24700    297.79468   -111730.89   -110900.92    434.09853    231875.58  0.045973256 
   24800    306.82213    -111766.5   -110911.37   -99.057486    231700.43  0.046008008 
   24900    307.64938   -111778.11   -110920.68    181.83746    231551.28  0.046037645 
   25000    308.84438   -111789.66    -110928.9    123.44097    231420.55  0.046063651 
   25100    295.26111   -111758.52   -110935.61   -3.0884491    231288.43  0.046089965 
   25200    289.70666   -111747.33    -110939.9   -99.839908    231131.96  0.046121165 
   25300    295.13841   -111765.13   -110942.56    -199.2393    230931.06  0.046161288 
   25400    298.59198   -111773.79    -110941.6    188.68042    230677.99  0.046211932 
   25500    291.19353      -111751   -110939.43   -377.06085    230428.21  0.046262025 
   25600    299.47143   -111769.94    -110935.3    120.17073    230192.07  0.046309481 
   25700    300.39586   -111768.02    -110930.8   -242.12791    229958.46  0.046356527 
   25800    291.12779   -111736.22   -110924.83    -14.10801     229696.4  0.046409414 
   25900    295.81721   -111742.12   -110917.66    217.66426    229452.61  0.046458723 
   26000    298.88923   -111742.57   -110909.55   -367.66645    229231.58  0.046503521 
   26100    309.24389   -111765.52   -110903.64    50.970067    228990.02  0.046552577 
   26200    303.57394   -111745.08      -110899   -300.63343    228732.45  0.046604998 
   26300    300.60764    -111733.6   -110895.79    97.708309    228431.33  0.046666433 
   26400    301.19604   -111733.09   -110893.63   -145.52779    228118.13  0.046730504 
   26500    296.11802   -111718.58   -110893.28    638.16962    227805.55  0.046794625 
   26600    300.71319    -111731.9   -110893.79    92.879258    227557.52   0.04684563 
   26700    311.11415   -111761.41   -110894.31    269.97801    227345.71  0.046889275 
   26800    306.24699   -111748.85   -110895.32   -175.04931    227182.68  0.046922923 
   26900    307.92875    -111756.1   -110897.88   -28.457532    227026.69  0.046955164 
   27000    310.58523   -111767.62   -110902.01    37.629907     226856.5  0.046990391 
   27100    296.14312   -111731.57   -110906.21   -192.76872    226695.07  0.047023852 
   27200    293.68128   -111727.22   -110908.71   -45.499399    226546.64  0.047054662 
   27300    294.66413   -111731.88   -110910.63   -274.47465    226442.22  0.047076359 
   27400    290.11701   -111721.18   -110912.61    -43.25281    226369.05  0.047091576 
   27500    305.02417   -111763.46   -110913.34   -173.26234     226322.6  0.047101242 
   27600    298.94565   -111746.99   -110913.81   -107.05277    226294.66  0.047107056 
   27700    303.70578   -111760.93   -110914.48    340.08811    226235.42  0.047119392 
   27800    306.64005   -111768.68   -110914.06   -578.51363    226150.92  0.047136997 
   27900    298.07491    -111745.7   -110914.95    144.18021    226024.89  0.047163281 
   28000    299.40067   -111750.16   -110915.72    299.40213    225900.63  0.047189223 
   28100    291.12854   -111725.15   -110913.76    56.256248    225763.83  0.047217817 
   28200    302.75201   -111755.78   -110911.99   -211.71028    225613.56  0.047249266 
   28300    292.84299   -111725.43   -110909.26    110.06132    225451.93  0.047283141 
   28400    303.90919   -111752.55   -110905.53   -82.347924    225281.06  0.047319004 
   28500    295.15657   -111723.41   -110900.79    381.50979    225055.53  0.047366423 
   28600    303.25798   -111737.97   -110892.77   -131.65292    224779.11  0.047424671 
   28700    301.87261   -111724.27   -110882.93     374.2255    224472.28  0.047489496 
   28800     304.8526   -111719.73   -110870.09    324.37269    224163.21  0.047554973 
   28900    310.14064   -111723.26   -110858.88   -30.578154    223850.31  0.047621446 
   29000    323.19432   -111752.63   -110851.87    260.77043    223524.66  0.047690824 
   29100    316.66905    -111731.7   -110849.12    131.61978    223218.93  0.047756143 
   29200    312.28009   -111720.71   -110850.37    204.24709    222944.88  0.047814848 
   29300    300.84938   -111696.15   -110857.66    76.065216    222692.47  0.047869042 
   29400    291.59024   -111682.36   -110869.68    398.72657    222418.59  0.047927987 
   29500    309.22366   -111744.25   -110882.42    207.14186       222189  0.047977511 
   29600    312.29135   -111766.97    -110896.6    47.125345    221982.41  0.048022163 
   29700    291.56162   -111721.96   -110909.36    153.55655    221824.11  0.048056431 
   29800     307.5693   -111773.71   -110916.49   -190.21143    221729.82  0.048076868 
   29900    302.74602   -111765.14   -110921.37    73.770302    221676.28  0.048088479 
   30000    293.80344   -111743.27   -110924.43   -326.39693    221625.17  0.048099571 
   30100    293.14079   -111743.16   -110926.16      112.438    221559.19  0.048113894 
   30200    301.71713   -111766.95   -110926.05   -344.85687    221485.16  0.048129976 
   30300    294.03242   -111744.16   -110924.67   -267.94976    221419.49  0.048144251 
   30400    297.65885   -111752.14   -110922.54   -244.30107     221382.7  0.048152252 
   30500     293.1078   -111738.68   -110921.77     73.14946    221366.05  0.048155872 
   30600    291.78181   -111734.67   -110921.46   -319.45689    221359.61  0.048157274 
   30700    315.47423   -111800.04   -110920.79   -222.69592    221322.18  0.048165419 
   30800    298.31701   -111751.96   -110920.53    54.831234    221255.98   0.04817983 
   30900    296.86382   -111745.54   -110918.16    -806.7416    221167.22  0.048199165 
   31000    299.79555   -111752.52   -110916.97    197.37047    221029.79  0.048229134 
   31100    296.07603   -111738.25   -110913.07    18.379843    220905.92  0.048256179 
   31200    300.76464   -111747.55    -110909.3    30.159011    220789.17  0.048281696 
   31300    297.55459   -111731.02   -110901.72   -17.069925    220656.94  0.048310627 
   31400    305.79246   -111746.19   -110893.93   -37.491006    220522.64  0.048340051 
   31500    308.92999   -111745.67   -110884.66    256.28055    220381.04   0.04837111 
   31600    310.23296   -111740.96   -110876.33    -22.05799     220257.4  0.048398262 
   31700     309.4084   -111732.36   -110870.02     288.6709    220165.66   0.04841843 
   31800    315.11884      -111744   -110865.75   -95.034753    220095.52   0.04843386 
   31900    305.16149   -111714.66   -110864.16   -161.05091    220017.66  0.048450999 
   32000    307.67166   -111723.99   -110866.49    -104.9219    219904.97  0.048475827 
   32100    312.35262    -111742.5   -110871.96    246.19613    219768.15  0.048506007 
   32200    304.23243    -111729.6   -110881.69   -89.727043    219632.26  0.048536019 
   32300    306.74869   -111751.29   -110896.36    -212.9991    219489.22   0.04856765 
   32400      305.781   -111764.76   -110912.53   -200.16666    219313.44  0.048606576 
   32500    306.93619   -111781.45      -110926   -179.26573    219154.75  0.048641772 
   32600    285.95993   -111731.41   -110934.42    417.18968     219010.5   0.04867381 
   32700    291.98725   -111751.43   -110937.65   -340.86452    218892.09   0.04870014 
   32800    291.64378    -111750.7   -110937.88    363.18935    218801.78   0.04872024 
   32900    298.49385   -111769.33   -110937.41   -124.80032    218743.07  0.048733317 
   33000    300.52152   -111772.74   -110935.17    72.941097    218668.53   0.04874993 
   33100    288.30212    -111737.7   -110934.18   -295.42402    218576.52   0.04877045 
   33200    301.35258   -111771.38    -110931.5    -239.2067    218455.28  0.048797517 
   33300    298.59139   -111760.33   -110928.14    134.86615    218304.94  0.048831123 
   33400    302.74929   -111767.25   -110923.47    99.876394    218161.37  0.048863259 
   33500    299.03413   -111749.49   -110916.06    453.16292    217986.99  0.048902348 
   33600    301.13374   -111747.96   -110908.68    -591.0404    217776.22  0.048949675 
   33700    304.23014   -111747.27   -110899.37    79.085412       217513  0.049008912 
   33800    321.83111   -111784.42   -110887.46   -142.40536    217304.58  0.049055916 
   33900    303.25221   -111719.74   -110874.56   -201.26913    217122.01  0.049097166 
   34000    316.07778   -111741.82   -110860.89    195.12464    216924.58  0.049141851 
   34100    325.28824   -111755.72   -110849.12    123.83676    216742.81  0.049183063 
   34200    323.16507   -111742.12   -110841.44    168.35105    216583.09  0.049219334 
   34300    315.83731    -111718.1   -110837.84    190.72939    216429.65  0.049254229 
   34400    315.76577   -111719.52   -110839.46    218.87628    216275.72  0.049289285 
   34500     307.5322   -111705.72   -110848.61    508.79759    216101.46   0.04932903 
   34600    314.27433   -111742.27   -110866.37   -126.06405    215915.12  0.049371602 
   34700    310.49056   -111755.82   -110890.46   -31.401278    215748.87  0.049409646 
   34800    305.29865   -111760.48   -110909.59    -266.3449    215601.02  0.049443529 
   34900    296.80884   -111747.99   -110920.77   -57.642356    215456.31  0.049476738 
   35000    296.49652   -111753.89   -110927.54    107.76698    215311.36  0.049510046 
   35100    292.45519   -111747.33   -110932.24    222.47264    215198.04  0.049536117 
   35200    302.24114   -111778.01   -110935.65   -394.86144    215099.46   0.04955882 
   35300    291.87181    -111752.7   -110939.24   -261.54797    215031.24  0.049574542 
   35400    288.28142   -111743.34   -110939.88    25.933896    214966.05  0.049589577 
   35500    289.90732   -111746.98   -110938.99    166.52634    214907.94  0.049602984 
   35600     298.4467   -111768.37   -110936.58    136.98423    214817.34  0.049623905 
   35700    295.85072      -111758   -110933.45    148.31887    214704.01    0.0496501 
   35800    304.89324   -111778.99   -110929.24   -414.32402    214570.46  0.049681002 
   35900    298.71198   -111757.02    -110924.5    116.87444    214417.58  0.049716425 
   36000    294.34889   -111740.37      -110920    139.76392    214285.15   0.04974715 
   36100    312.44898   -111787.24   -110916.43    72.146887    214152.37  0.049777993 
   36200    308.50085   -111772.79   -110912.98   -192.68579    214032.08   0.04980597 
   36300    301.93343   -111752.19   -110910.68    291.13624    213923.62  0.049831222 
   36400     297.7205   -111739.32   -110909.55   -376.64674    213801.29  0.049859735 
   36500    300.96354   -111745.91   -110907.11   -371.21237    213645.44  0.049896105 
   36600    302.44795   -111749.84    -110906.9   -36.652103    213469.08  0.049937328 
   36700    307.69393   -111764.01   -110906.45   -540.01657    213281.36  0.049981281 
   36800    291.71484   -111720.78   -110907.76    12.182714    213099.87  0.050023847 
   36900    305.79022   -111762.79   -110910.54    18.724582     212897.2  0.050071469 
   37000    304.43601   -111763.19   -110914.71    169.03671    212657.76  0.050127846 
   37100    306.03996   -111773.53   -110920.58    132.26162    212433.27  0.050180819 
   37200    299.27402   -111762.46   -110928.36     479.2902    212239.51   0.05022663 
   37300    297.74076   -111766.48   -110936.66    5.5711672    212101.38  0.050259341 
   37400    292.02216   -111759.98    -110946.1   0.51770571    211972.89  0.050289806 
   37500    291.10093   -111765.48   -110954.17   -60.347263    211855.48  0.050317677 
   37600    295.38532   -111785.02   -110961.76    637.95858    211761.03  0.050340118 
   37700    282.19095    -111752.8   -110966.31   -90.209708    211663.63  0.050363284 
   37800     284.7398   -111762.86   -110969.27    78.339857    211538.66  0.050393035 
   37900    295.51419   -111792.03   -110968.41    245.93652    211420.71   0.05042115 
   38000    291.08925   -111772.59    -110961.3     324.9106    211342.47  0.050439815 
   38100    296.97636    -111777.9   -110950.21   -40.272599    211281.21  0.050454442 
   38200    293.71697    -111754.3   -110935.69   -368.90662    211218.32  0.050469465 
   38300    309.75725   -111782.14   -110918.83    27.042781    211151.14  0.050485521 
   38400    291.82619   -111718.91   -110905.58   -77.605399    211105.18  0.050496513 
   38500     297.3773   -111724.47   -110895.66    72.238326    211068.95   0.05050518 
   38600    309.87498   -111753.81   -110890.17   -65.001082    211031.42  0.050514161 
   38700    298.59791   -111719.21      -110887   -120.54372    211004.83  0.050520528 
   38800    304.20669   -111733.96   -110886.12    62.552901    210946.76  0.050534436 
   38900    309.71281   -111749.76   -110886.57   -235.45542    210834.99  0.050561225 
   39000    305.02803   -111739.22   -110889.09   -133.14964     210673.2  0.050600055 
   39100    302.43757   -111734.49   -110891.58    188.95975    210489.75  0.050644154 
   39200    302.13702    -111737.7   -110895.62    202.91209    210340.75  0.050680029 
   39300    294.72784   -111721.66   -110900.23    89.609659    210185.86  0.050717377 
   39400    289.91868   -111713.11   -110905.09    372.38356    210039.64  0.050752684 
   39500    304.85516   -111757.67   -110908.02   -370.68752    209921.16   0.05078133 
   39600    288.95452   -111717.44   -110912.11    -273.3832    209821.62  0.050805419 
   39700    293.50739   -111732.17   -110914.15   -160.64155    209724.09  0.050829045 
   39800    289.13531   -111723.04    -110917.2    68.299577    209596.37   0.05086002 
   39900     302.6755   -111763.45   -110919.87     27.48073    209464.86  0.050891951 
   40000    301.04879   -111765.29   -110926.25   -173.57746    209335.26  0.050923459 
   40100    285.22155   -111726.72   -110931.79   -76.602385    209223.43  0.050950678 
   40200    287.98886   -111741.29   -110938.65   -41.998667    209102.35   0.05098018 
   40300    288.76412   -111748.89   -110944.09    75.974667    208993.89  0.051006637 
   40400    284.27215   -111740.61   -110948.33    303.91811    208867.76  0.051037439 
   40500    298.37561   -111782.09    -110950.5    426.28682     208743.3  0.051067867 
   40600    294.90401   -111772.17   -110950.25   -397.89193       208598  0.051103441 
   40700    290.24439    -111756.2   -110947.27    270.64845    208427.88   0.05114515 
   40800    301.19062   -111781.23   -110941.79    623.39243     208251.5  0.051188468 
   40900    295.43284   -111757.66   -110934.27    248.26507    208119.25  0.051220997 
   41000    300.19256   -111760.62   -110923.96   -69.525768    208049.83  0.051238088 
   41100    303.54656   -111758.62   -110912.62    57.150582    207996.11  0.051251321 
   41200    301.79062   -111742.95   -110901.85   -168.56986    207929.81  0.051267661 
   41300    302.59174   -111735.03   -110891.69    256.59743    207817.39  0.051295396 
   41400    310.71676   -111750.99      -110885    345.03961    207687.91  0.051327376 
   41500    306.97309   -111737.73   -110882.18   -393.46359    207545.93  0.051362488 
   41600    302.40307   -111724.37   -110881.55    110.40246    207412.46   0.05139554 
   41700    296.43777   -111708.15   -110881.96    -50.38052    207305.89  0.051421962 
   41800     308.8864   -111744.73   -110883.84    18.784483    207208.68  0.051446085 
   41900    294.44623   -111708.79   -110888.15    415.17142    207134.75  0.051464448 
   42000    283.09662   -111683.66   -110894.65   -154.46535     207054.9  0.051484295 
   42100    292.26746   -111718.08   -110903.52    76.002329    206972.07  0.051504897 
   42200    298.12953   -111749.21   -110918.31   -475.39656     206879.6  0.051527919 
   42300    294.74216   -111757.88   -110936.42    131.11877    206728.48  0.051565587 
   42400    300.85004   -111792.77   -110954.28    193.88052    206570.31   0.05160507 
   42500    288.70057   -111769.75   -110965.13     105.6326    206404.28   0.05164658 
   42600    292.82152   -111785.94   -110969.83    198.10242    206243.01  0.051686964 
   42700    288.61019   -111773.27    -110968.9   -38.663536    206107.68  0.051720903 
   42800    289.55782   -111772.41   -110965.39   -502.94191    205958.58  0.051758346 
   42900    285.57308   -111756.72   -110960.81   -211.52962    205789.25  0.051800933 
   43000    281.49252   -111738.05   -110953.51    333.99598    205572.12  0.051855646 
   43100    289.06524   -111752.57   -110946.93    158.17961    205329.87  0.051916826 
   43200    309.36398   -111801.87   -110939.66   -340.79875    205155.75  0.051960889 
   43300    298.36662   -111765.36    -110933.8    170.92208    205037.87  0.051990762 
   43400    301.48738   -111768.26   -110927.99    152.75548    204955.14  0.052011748 
   43500    291.94918   -111737.37   -110923.69    -94.99708    204873.06  0.052032587 
   43600    292.64613   -111734.83    -110919.2    502.96997    204755.01  0.052062587 
   43700    307.87397   -111772.24   -110914.17   -93.514545    204627.73   0.05209497 
   43800    287.23904   -111711.73   -110911.18   -372.09451    204514.57  0.052123795 
   43900    294.10774   -111727.84   -110908.14   -70.652868    204409.02  0.052150709 
   44000    304.07394   -111751.93   -110904.46    137.95482     204338.8   0.05216863 
   44100    309.66111   -111764.38   -110901.34   -594.76729    204308.87  0.052176272 
   44200      306.705    -111753.9    -110899.1    57.605085    204280.53   0.05218351 
   44300    313.07926   -111770.26   -110897.69    59.962038    204239.17  0.052194078 
   44400    304.19414   -111746.27   -110898.46    68.217843    204150.28  0.052216805 
   44500    298.46445   -111732.78   -110900.95   -283.11494    204014.91  0.052251454 
   44600     302.9093   -111750.83    -110906.6   -299.68737    203856.77  0.052291985 
   44700    302.56349   -111761.27   -110918.01    448.49768     203692.1   0.05233426 
   44800    294.46001   -111758.61   -110937.93   -287.15495    203523.71   0.05237756 
   44900    292.15443   -111771.73   -110957.48    249.29812    203311.02  0.052432353 
   45000    275.91634   -111740.97   -110971.98   0.73147537    203073.43  0.052493698 
   45100    282.55305   -111767.55   -110980.05    555.14891    202850.49  0.052551389 
   45200    291.78084      -111797   -110983.79     257.6505    202642.09  0.052605434 
   45300    293.48797   -111799.89   -110981.93    120.65183    202440.37  0.052657853 
   45400    288.07116   -111778.61   -110975.74    162.29443    202261.28  0.052704479 
   45500    291.31719   -111778.11   -110966.19   -464.03192    202079.08  0.052751999 
   45600    292.41817   -111769.24   -110954.25     278.7151    201863.29  0.052808391 
   45700    292.56922   -111757.38   -110941.97    117.42719    201648.01  0.052864768 
   45800    317.24516   -111813.04   -110928.86    239.66927    201470.93  0.052911234 
   45900    300.95831   -111757.79      -110919    223.59639    201303.13  0.052955337 
   46000    302.86641   -111755.51    -110911.4   -410.20549    201136.44  0.052999225 
   46100    291.44531   -111718.55   -110906.27   -216.04922    200980.02  0.053040474 
   46200    292.74594    -111718.5    -110902.6   -331.50352    200812.92  0.053084609 
   46300    291.90977   -111712.34   -110898.77   -315.89914    200637.56  0.053131005 
   46400      292.919   -111710.89   -110894.51    415.78922    200460.58  0.053177913 
   46500    305.67592   -111743.16   -110891.23   -133.62155     200306.4  0.053218846 
   46600    301.52812   -111731.37   -110890.99    183.83269    200146.89   0.05326126 
   46700    294.54293   -111711.16   -110890.25   -458.48284     199979.5   0.05330584 
   46800    309.19199   -111751.94    -110890.2    70.973283    199796.89   0.05335456 
   46900    306.05835   -111744.13   -110891.13    6.5673658    199614.92    0.0534032 
   47000    300.53316   -111732.07   -110894.47    453.12804    199447.65  0.053447987 
   47100    309.15065   -111762.63   -110901.01    174.35774    199331.75  0.053479065 
   47200    300.26328    -111750.1   -110913.25   -223.89221    199244.54  0.053502471 
   47300    309.85346   -111794.99   -110931.41    10.527669    199156.37  0.053526159 
   47400    297.72274   -111777.87    -110948.1    27.135555     199044.9  0.053556134 
   47500    293.57553   -111778.53   -110960.31   -237.42661    198927.07  0.053587856 
   47600    290.77808   -111778.13   -110967.71    155.42293    198837.79  0.053611919 
   47700    284.90475   -111765.64    -110971.6   -158.26525     198799.9  0.053622136 
   47800    295.36071    -111794.1   -110970.91    137.85911    198779.74  0.053627574 
   47900    286.39475   -111766.27   -110968.07   -301.88526    198757.16  0.053633668 
   48000    288.78355   -111765.58   -110960.72   -72.723803    198717.63  0.053644338 
   48100    291.08209   -111761.65   -110950.39   -27.688464    198676.85  0.053655348 
   48200    302.38979   -111781.29   -110938.51   -93.000467    198643.32  0.053664404 
   48300    306.86506   -111781.57   -110926.32   -459.48109     198607.6  0.053674057 
   48400    302.21798   -111759.59   -110917.29   -360.12577    198582.54  0.053680829 
   48500    307.96048   -111769.57   -110911.26    38.796983    198519.12  0.053697978 
   48600    305.28874   -111759.18   -110908.32     31.28981    198460.55  0.053713827 
   48700    302.58014   -111749.77   -110906.46   -162.04063    198390.79  0.053732714 
   48800    295.22417   -111728.26   -110905.46      10.9542    198348.09   0.05374428 
   48900     302.8644   -111749.44   -110905.34   -287.02236    198360.51  0.053740915 
   49000    295.96372   -111731.65   -110906.78   -160.09611    198409.81  0.053727563 
   49100    301.37733   -111747.27   -110907.32   -313.03435    198452.99  0.053715872 
   49200     296.8283    -111734.1   -110906.82    226.74062    198475.42  0.053709802 
   49300    301.99588   -111748.46   -110906.78   -68.738632    198464.45  0.053712769 
   49400     299.9119    -111742.3   -110906.43    71.543966    198422.75  0.053724059 
   49500    290.53965   -111715.92   -110906.17   -399.25613    198371.18  0.053738026 
   49600    304.56714    -111754.2   -110905.35   -214.75498    198312.29  0.053753982 
   49700    296.62988   -111730.71   -110903.99    275.24591    198230.64  0.053776124 
   49800    298.17389   -111733.74   -110902.71    160.38396    198141.88  0.053800214 
   49900    302.82932   -111744.94   -110900.94    299.83768    198056.58  0.053823384 
   50000    309.06803   -111761.75   -110900.36    219.86785    197968.73  0.053847268 
   50100    299.27003   -111734.18    -110900.1    153.49767       197867  0.053874953 
   50200    298.64271   -111732.28   -110899.95    114.57946    197774.72  0.053900091 
   50300    313.97189   -111775.99   -110900.93   -210.58865    197667.63  0.053929293 
   50400    303.19353   -111749.83   -110904.81   -69.389857    197515.88  0.053970725 
   50500    293.24141   -111727.65   -110910.37    54.883348    197345.78  0.054017244 
   50600    301.54196   -111757.37   -110916.95   -435.77287    197174.67  0.054064123 
   50700    313.60014   -111796.84   -110922.82    404.23449    197005.95  0.054110423 
   50800     302.9723   -111772.84   -110928.44   -339.58347    196850.52  0.054153148 
   50900    292.46498   -111747.71    -110932.6    241.23169    196698.55  0.054194986 
   51000    298.19638   -111768.19    -110937.1    53.551448    196558.68  0.054233552 
   51100    300.92376   -111779.13   -110940.43    506.57769    196411.88  0.054274087 
   51200    293.86847   -111762.25   -110943.22    114.47609    196257.24  0.054316851 
   51300    296.95702   -111771.62   -110943.99    173.20533    196100.34  0.054360311 
   51400    293.70895   -111762.98    -110944.4   -258.33087    195966.36  0.054397475 
   51500    293.93583   -111763.11    -110943.9    130.06419    195862.99  0.054426186 
   51600     294.6592   -111761.79   -110940.56    166.97578    195747.83  0.054458206 
   51700    298.84403   -111771.33   -110938.43   -369.01981    195632.83  0.054490218 
   51800    297.61121      -111767   -110937.54    449.92712    195544.86   0.05451473 
   51900    306.76038   -111792.37   -110937.41   -169.57499    195484.08  0.054531679 
   52000    288.42609   -111739.37   -110935.51    195.84765    195427.31   0.05454752 
   52100    298.79813   -111764.78   -110932.01   -37.435392    195381.08  0.054560428 
   52200    297.27402   -111755.25   -110926.73   -299.16821    195351.04  0.054568817 
   52300    300.16285   -111754.94   -110918.37   -148.99366       195294  0.054584757 
   52400    301.19423   -111747.17   -110907.72   -9.3924278     195205.1  0.054609616 
   52500    311.97412    -111767.2   -110897.71    255.38037    195090.72  0.054641632 
   52600    303.00014   -111733.89   -110889.41    213.87371    194990.85  0.054669619 
   52700     300.6569   -111721.51   -110883.57    465.03288    194919.28  0.054689691 
   52800    296.03449   -111705.74   -110880.68   -519.90693    194886.87  0.054698787 
   52900     307.4005   -111736.58   -110879.84   -261.88788    194885.15  0.054699269 
   53000     304.6473   -111729.64   -110880.57   -553.16565    194884.02  0.054699588 
   53100    300.33217   -111720.39   -110883.35    233.15052    194849.18  0.054709367 
   53200    311.84132   -111756.49   -110887.37    232.75864    194812.83  0.054719574 
   53300    297.38094   -111723.53   -110894.72    89.702363    194739.93  0.054740061 
   53400    296.08906   -111731.88   -110906.67    239.24224    194607.71   0.05477725 
   53500    290.84542   -111731.28   -110920.68    200.76659    194427.83  0.054827929 
   53600    305.30121   -111786.36   -110935.47   -129.78821    194252.96  0.054877288 
   53700    292.09568   -111761.56   -110947.48    325.60575    194102.41   0.05491985 
   53800    299.60012    -111792.1    -110957.1   -23.232448    193949.49  0.054963153 
   53900    284.90675   -111757.18   -110963.13   -364.53783    193748.99  0.055020032 
   54000    291.88821   -111778.11    -110964.6    128.51376    193472.83  0.055098565 
   54100    303.34704   -111808.88   -110963.43   -14.310659    193172.54  0.055184216 
   54200    299.76379   -111795.77   -110960.31   -354.28761    192919.67  0.055256551 
   54300    298.42682   -111788.61   -110956.88   -526.03116    192728.01    0.0553115 
   54400    290.10297   -111759.43   -110950.89     13.74623    192561.07  0.055359454 
   54500    306.84449      -111799   -110943.81   -119.11831    192412.88  0.055402089 
   54600    303.41473   -111780.56   -110934.93   -265.51281    192295.83  0.055435811 
   54700    304.83555   -111771.69   -110922.09   -59.783152    192182.88  0.055468391 
   54800    304.34724   -111756.19   -110907.95  -0.95519963    192083.79  0.055497007 
   54900     295.2656   -111717.89   -110894.97   -179.26938    191986.71  0.055525068 
   55000    313.80927   -111757.02   -110882.41    452.21427    191925.01   0.05554292 
   55100    323.71691   -111775.51   -110873.29   -241.64715    191889.07  0.055553323 
   55200    311.89813   -111738.23   -110868.95    768.05729     191863.1  0.055560842 
   55300    310.77963   -111736.33   -110870.17   -93.393144    191845.93  0.055565814 
   55400     304.1517   -111723.94   -110876.25    288.22113    191807.71  0.055576887 
   55500    308.20255   -111746.16   -110887.18   -248.73197    191770.86  0.055587567 
   55600    305.90786   -111759.34   -110906.76    94.034267    191761.16  0.055590378 
   55700    290.62302   -111741.33   -110931.35   -170.97613    191782.13  0.055584299 
   55800    288.83872   -111753.68   -110948.67     132.0743    191795.89  0.055580311 
   55900    290.68631   -111765.47   -110955.31   -28.505839    191807.44  0.055576964 
   56000    286.19899   -111754.93   -110957.27    172.71936    191816.07  0.055574464 
   56100    302.63878   -111799.03   -110955.56    -526.9922    191840.64  0.055567347 
   56200     297.1841   -111781.88   -110953.61    361.79126     191875.3   0.05555731 
   56300     301.9981   -111791.96   -110950.27   -164.75867    191928.32  0.055541963 
   56400     294.6352   -111766.43   -110945.27    119.84861     191964.9  0.055531378 
   56500    299.49374   -111774.37   -110939.67   -140.03127    191964.64  0.055531452 
   56600     306.3906   -111786.52   -110932.59    323.99281    191926.99  0.055542345 
   56700    298.97132   -111759.79   -110926.54   -71.309368    191840.55  0.055567373 
   56800    306.53981   -111774.88   -110920.54   -116.69168    191704.38  0.055606844 
   56900    299.59458    -111749.3   -110914.31    233.77173    191569.88  0.055645886 
   57000    297.78955    -111738.8   -110908.84   -11.633004    191466.37  0.055675966 
   57100    299.33169   -111737.95   -110903.69    337.00111    191353.43  0.055708828 
   57200    300.30258   -111736.14   -110899.18   -321.69594    191209.66  0.055750715 
   57300    298.91528   -111726.23   -110893.13    3.6810745    191075.11  0.055789973 
   57400    304.91632   -111737.79   -110887.97    217.92631    190982.39   0.05581706 
   57500    302.84834   -111728.34   -110884.28    71.830793    190925.17  0.055833787 
   57600    303.60804   -111727.11   -110880.94   -346.21641    190872.89  0.055849081 
   57700    312.07811   -111750.56   -110880.78    297.00041    190811.08  0.055867172 
   57800    313.52101    -111756.5    -110882.7    169.16587    190753.89   0.05588392 
   57900    306.84197    -111743.8   -110888.61    126.48934    190709.49  0.055896931 
   58000     297.6097   -111729.77   -110900.31    306.86669    190699.18  0.055899953 
   58100     304.1123    -111763.6   -110916.02   -248.93115    190696.28  0.055900805 
   58200    306.56504   -111786.17   -110931.75     242.5216    190693.96  0.055901484 
   58300    296.65836   -111770.67   -110943.86    61.414411    190723.89  0.055892711 
   58400     290.8682   -111761.41   -110950.74   -64.226011    190762.76  0.055881323 
   58500    293.09949   -111771.93   -110955.04    61.181057    190827.84  0.055862266 
   58600    301.31581   -111797.14   -110957.36    533.26854    190890.41  0.055843953 
   58700    292.15773   -111771.12   -110956.86   -43.976921    190962.05  0.055823004 
   58800    293.75954   -111773.58   -110954.85    -105.8958    191031.86  0.055802606 
   58900    294.91398   -111772.15   -110950.21     371.4395    191052.32   0.05579663 
   59000    284.92138   -111737.68   -110943.59    237.44216    191069.01  0.055791755 
   59100    305.42098   -111785.85   -110934.63    -196.1166    191083.17   0.05578762 
   59200    294.57894   -111744.28   -110923.27   -52.940599    191090.89  0.055785368 
   59300    303.36774   -111756.47   -110910.97    127.29033    191097.62  0.055783402 
   59400    307.34751   -111756.96   -110900.36    194.09006    191099.03  0.055782991 
   59500    305.75071   -111745.34   -110893.19    430.50258    191076.89  0.055789455 
   59600    294.60169   -111709.87    -110888.8    26.769176    191066.17  0.055792584 
   59700    309.89033   -111750.62   -110886.93    255.38112    191086.16  0.055786749 
   59800    299.70139   -111721.76   -110886.48    112.76816    191118.54  0.055777295 
   59900     301.7046   -111727.41   -110886.54    24.766208    191131.36  0.055773555 
   60000    301.29368   -111727.69   -110887.97    165.48824    191127.13  0.055774788 
   60100     296.2333    -111716.2   -110890.58    205.29971    191132.19  0.055773311 
   60200    309.84416   -111756.58   -110893.03    293.57589    191132.77  0.055773142 
   60300    302.07025   -111738.31   -110896.42   -860.80466    191147.96  0.055768711 
   60400    309.88277   -111764.43   -110900.77   -275.45767     191152.8    0.0557673 
   60500    298.52854   -111738.99   -110906.97   -348.50019    191168.74   0.05576265 
   60600    302.05145    -111754.3   -110912.46   -49.103496    191168.54  0.055762706 
   60700    307.75626   -111778.18   -110920.44   -7.2840358    191141.67  0.055770546 
   60800    312.63773   -111800.96   -110929.62   -567.47186    191124.01  0.055775699 
   60900    293.38541   -111757.11   -110939.42     65.65764     191113.4  0.055778796 
   61000    282.35181   -111735.95   -110949.02    377.51148    191112.39  0.055779091 
   61100    299.87393   -111792.72   -110956.96   -47.114922    191140.05   0.05577102 
   61200    293.46454   -111779.71   -110961.81   -180.85045    191136.56  0.055772038 
   61300    295.83975   -111788.96   -110964.43   -55.883333     191109.4  0.055779962 
   61400    293.86291   -111782.96   -110963.95    254.99891    191046.94  0.055798199 
   61500    290.31947    -111768.9   -110959.77   -161.45315    190975.32  0.055819125 
   61600     293.8422   -111770.45   -110951.49    335.81741    190902.62  0.055840382 
   61700    294.40287   -111760.66   -110940.14    490.99593    190842.05  0.055858107 
   61800    309.21737   -111787.43   -110925.62    154.31449    190801.11  0.055870091 
   61900     291.6136   -111726.03   -110913.28    54.226623    190726.19  0.055892036 
   62000    313.90016   -111778.17   -110903.32    64.423783    190626.55  0.055921254 
   62100    308.71705   -111760.94   -110900.52    -353.1753    190509.79  0.055955527 
   62200    319.79903   -111790.81   -110899.51    94.580146    190395.06  0.055989243 
   62300    307.20959   -111756.83   -110900.62   -198.23062    190275.94  0.056024294 
   62400    301.74162   -111742.54   -110901.57   -193.11589    190161.24  0.056058086 
   62500    304.07501   -111752.43   -110904.95    207.60385    190073.97  0.056083826 
   62600    307.83251   -111766.86   -110908.91    647.10726    190017.12  0.056100604 
   62700    298.17112   -111743.17   -110912.15    91.657589    189963.27  0.056116508 
   62800    298.99862   -111749.11   -110915.79    -3.951684    189888.09  0.056138726 
   62900     299.9067   -111756.08   -110920.22    296.49796    189783.56  0.056169645 
   63000    306.92636   -111781.13   -110925.71    575.09827    189694.87  0.056195908 
   63100    300.52714   -111768.01   -110930.43    460.07363    189635.42  0.056213525 
   63200    288.75374   -111739.33   -110934.56   -100.43368    189633.22  0.056214178 
   63300    302.35684   -111782.53   -110939.85    109.73631    189640.38  0.056212055 
   63400    304.68766   -111793.41   -110944.23    483.10953    189644.57  0.056210812 
   63500    294.02443   -111769.36    -110949.9    89.293476    189674.75  0.056201868 
   63600    294.03231    -111774.6   -110955.12   -282.91347    189698.41  0.056194858 
   63700    294.15457   -111780.38   -110960.55   -87.242459    189700.04  0.056194377 
   63800    295.09995   -111787.07   -110964.61    261.87788    189689.61  0.056197467 
   63900     281.0852   -111752.17   -110968.77    51.022244     189712.3  0.056190745 
   64000    297.50737   -111801.08   -110971.91    643.23912    189719.57  0.056188591 
   64100    300.51982   -111810.27    -110972.7   -197.98096    189727.28  0.056186309 
   64200    295.51727    -111795.2   -110971.58   -392.83915    189721.77   0.05618794 
   64300    290.45435   -111776.67   -110967.15    49.354124    189699.95  0.056194403 
   64400    297.21863   -111784.96    -110956.6    263.37257    189655.58  0.056207549 
   64500    290.63521   -111753.15   -110943.13   -260.55476    189640.54  0.056212007 
   64600    306.19876   -111781.29   -110927.89   -627.14593     189623.7     0.056217 
   64700    301.57284   -111755.29   -110914.79   -285.84353    189567.68  0.056233611 
   64800     308.6746   -111764.43   -110904.14    346.38673    189495.14  0.056255138 
   64900    306.86915   -111752.19   -110896.93    51.237041    189422.97  0.056276572 
   65000    301.81961   -111734.94   -110893.76   -137.07863    189357.71  0.056295967 
   65100    307.57005   -111750.27   -110893.05    58.236823    189296.68  0.056314116 
   65200    306.49075   -111747.51   -110893.31    39.827322    189211.29  0.056339533 
   65300    314.30986   -111772.24   -110896.24    94.268201    189079.32  0.056378855 
   65400    301.67588   -111742.47   -110901.68   -20.799285    188947.56   0.05641817 
   65500    306.74358   -111764.24   -110909.33    402.33184    188834.93  0.056451818 
   65600    299.55352    -111753.5   -110918.63    381.75305    188744.01  0.056479012 
   65700    305.02097   -111779.44   -110929.33   -298.33172    188647.53  0.056507897 
   65800    293.01284   -111758.38   -110941.74    -39.78971    188525.26  0.056544548 
   65900    291.03744   -111765.69   -110954.55    -23.04479    188388.12   0.05658571 
   66000     300.7844   -111804.38   -110966.08   -18.262823    188227.22   0.05663408 
   66100    305.36937   -111825.85   -110974.77    246.37832     188063.9  0.056683262 
   66200     294.0352    -111800.8   -110981.31   -821.42976    187945.39  0.056719005 
   66300    293.44425   -111801.34    -110983.5    344.81638    187833.55  0.056752775 
   66400    282.96912   -111770.58   -110981.92   -385.03641    187742.83    0.0567802 
   66500    297.33189   -111806.56   -110977.88   -101.52419    187658.15   0.05680582 
   66600    285.40549   -111768.52   -110973.08    44.735669    187568.79  0.056832883 
   66700    295.33022   -111792.06   -110968.95    149.65004     187474.4  0.056861498 
   66800    295.63238   -111789.18   -110965.24   -440.15499    187382.53  0.056889376 
   66900    292.98299   -111777.86    -110961.3    348.75947    187282.66  0.056919712 
   67000    292.09074   -111771.12   -110957.04    256.14574     187217.7  0.056939465 
   67100    288.66498   -111755.43   -110950.91    309.51675    187171.56  0.056953501 
   67200    301.83777   -111785.24      -110944    155.01537    187146.18  0.056961222 
   67300    299.97343   -111772.67   -110936.63   -38.720682    187118.64  0.056969606 
   67400    292.29465   -111742.68   -110928.03   -611.05517    187069.25  0.056984647 
   67500    304.02356   -111767.11   -110919.77    517.26961    186992.98   0.05700789 
   67600    295.96237   -111737.29   -110912.43    14.042103     186908.1  0.057033778 
   67700    294.54694   -111727.77   -110906.85    549.87867    186830.83  0.057057367 
   67800    299.24754   -111734.82    -110900.8   -308.04306    186785.41  0.057071241 
   67900    311.30968   -111762.87   -110895.23    147.62356    186742.12  0.057084472 
   68000    304.86062   -111741.25   -110891.59   -277.96113    186692.09  0.057099769 
   68100    308.11508   -111748.19   -110889.46    185.46672    186615.05  0.057123341 
   68200    310.21693   -111753.68   -110889.09   -242.94068     186513.4  0.057154473 
   68300    307.14488   -111745.52   -110889.49   -67.134398    186405.78  0.057187473 
   68400    300.17702   -111731.99   -110895.38    -86.95412    186299.13   0.05722021 
   68500      291.036   -111716.32   -110905.19    273.92629    186173.52  0.057258815 
   68600    294.04837   -111738.94   -110919.41    441.22868    186078.57  0.057288035 
   68700    291.20164   -111747.22   -110935.62   -106.05217    186019.13  0.057306338 
   68800    301.77533   -111789.06      -110948   -158.98823    185996.78  0.057313225 
   68900     299.3994   -111792.98   -110958.54    255.69864     185988.1  0.057315902 
   69000    289.39745   -111772.48   -110965.92   -321.15155    185978.09  0.057318985 
   69100    283.60903   -111760.21   -110969.78    192.14547    185938.72   0.05733112 
   69200     289.6011   -111776.63   -110969.49    601.57103    185856.94  0.057356347 
   69300    299.80998   -111800.65   -110965.06    -623.9501       185767  0.057384118 
   69400    293.17045   -111776.42   -110959.34   -56.179243    185657.96  0.057417819 
   69500    289.80096   -111761.28   -110953.58   -42.370461    185567.02   0.05744596 
   69600    293.10823   -111762.25   -110945.34   -140.33182    185467.28  0.057476853 
   69700    298.21296   -111767.93   -110936.79    89.499506    185385.94   0.05750207 
   69800     308.9084    -111788.9   -110927.95    311.11842    185335.57  0.057517697 
   69900    305.84787   -111772.36   -110919.94    442.19709    185296.88  0.057529709 
   70000    315.59923   -111793.43   -110913.84    -341.0442    185284.88  0.057533433 
   70100    306.45842   -111764.41    -110910.3    174.25357    185310.19  0.057525575 
   70200      303.735   -111755.36   -110908.84   -321.45956    185361.86  0.057509542 
   70300    308.85093   -111770.06   -110909.28    497.53597    185421.49  0.057491045 
   70400    297.16008   -111739.64   -110911.43   -243.35722    185533.77  0.057456253 
   70500    303.93453   -111761.12   -110914.04    164.36866     185637.7  0.057424087 
   70600    302.22119   -111759.44   -110917.13   -118.68628       185729  0.057395858 
   70700    297.33767   -111748.45   -110919.75   -441.24924    185799.94  0.057373945 
   70800    291.62735   -111732.33   -110919.55   -52.974401       185862  0.057354786 
   70900      283.001   -111707.73   -110918.99   -318.29346    185902.46  0.057342305 
   71000    301.43224   -111758.18   -110918.07    314.58762    185935.88  0.057331997 
   71100    310.51062   -111782.09   -110916.68   -382.75662    185954.18  0.057326354 
   71200    305.54908   -111769.67   -110918.09   -484.10131    185946.64  0.057328679 
   71300    302.12322    -111760.9   -110918.86   -259.18141     185887.9  0.057346795 
   71400    301.60229   -111761.69   -110921.11    106.47402    185797.09  0.057374824 
   71500    296.75758   -111750.72   -110923.64    46.769534    185706.24  0.057402893 
   71600    291.67908   -111739.16   -110926.23    75.598829    185642.59  0.057422574 
   71700    297.27555   -111756.76   -110928.23   -246.48116    185586.13  0.057440043 
   71800    296.91342   -111757.89   -110930.37   -237.37882    185453.06   0.05748126 
   71900    295.13833   -111754.39   -110931.83    137.34013    185216.41  0.057554703 
   72000    286.26118   -111730.75   -110932.92   -217.24364     184938.6  0.057641161 
   72100    300.09182   -111769.09   -110932.71    82.483193    184675.55  0.057723262 
   72200    298.84093   -111765.25   -110932.37    235.64904    184429.58  0.057800247 
   72300    304.24251   -111780.59   -110932.65     218.0455    184215.65  0.057867371 
   72400    295.73633   -111756.62   -110932.38    203.29076    184032.49  0.057924964 
   72500    297.14376   -111761.58   -110933.42   -198.71714    183854.04  0.057981185 
   72600    303.82331   -111779.05   -110932.28   -86.226107    183670.22  0.058039215 
   72700    309.79301   -111792.97   -110929.55    340.80306    183520.33  0.058086618 
   72800    297.99736   -111758.35   -110927.81   -231.81265    183397.17  0.058125627 
   72900    298.97981   -111759.33   -110926.06   -689.78995     183284.4  0.058161388 
   73000     297.6023   -111756.31   -110926.88    124.91907    183220.55  0.058181656 
   73100    297.91681   -111758.61    -110928.3    257.76372    183201.91  0.058187578 
   73200    293.70719   -111750.69   -110932.11    358.54397    183180.91   0.05819425 
   73300    306.99129   -111789.67   -110934.07   -235.94299    183165.46  0.058199156 
   73400    308.44226   -111798.34   -110938.69     496.1971    183168.96  0.058198046 
   73500    300.03235   -111780.83   -110944.62   -578.29343    183178.95  0.058194872 
   73600    304.55202   -111800.51   -110951.71       27.064    183149.06  0.058204368 
   73700    285.75332   -111754.57   -110958.16    127.20084    183099.84  0.058220016 
   73800     291.2532   -111774.77   -110963.03   -261.55698     183036.3  0.058240227 
   73900    287.17708   -111767.15   -110966.77    97.116937    182936.32  0.058272056 
   74000    299.40465   -111803.63   -110969.17    199.25256    182812.18  0.058311626 
   74100    287.97331   -111771.57   -110968.97   -15.810191    182668.88  0.058357371 
   74200     290.6236   -111775.83   -110965.84    173.44106    182507.11  0.058409097 
   74300    289.75196   -111766.48   -110958.93   -387.01071    182360.64  0.058456011 
   74400    297.31463   -111776.68   -110948.05    33.462612    182229.22  0.058498167 
   74500    308.33214   -111794.05   -110934.71   -40.556211    182097.15  0.058540595 
   74600    297.76574   -111749.78   -110919.89   -2.8460565    181959.04  0.058585026 
   74700    308.49084   -111768.45   -110908.67   -271.64342    181803.61  0.058635112 
   74800    302.50906   -111743.28   -110900.17     219.2651    181637.32  0.058688795 
   74900    300.56507   -111733.57   -110895.88   -209.24469     181506.1  0.058731223 
   75000    312.34224   -111765.13   -110894.62    257.82865    181400.68  0.058765354 
   75100    303.79188   -111740.35   -110893.66    34.377687    181304.52  0.058796524 
   75200    306.87376    -111751.5   -110896.22     85.26384    181203.56  0.058829282 
   75300    301.90948   -111739.96   -110898.52   -330.97688    181071.75  0.058872108 
   75400     299.9494    -111738.9   -110902.92   -349.62537    180924.11  0.058920147 
   75500    301.94579   -111750.57   -110909.03   0.83993936    180787.06  0.058964815 
   75600    297.33474   -111745.59   -110916.91    741.23496    180689.15  0.058996765 
   75700    302.70448   -111771.97   -110928.31   -60.984947    180619.79  0.059019421 
   75800    299.88113   -111780.93   -110945.14   -207.23936    180578.23  0.059033003 
   75900    296.04409   -111791.61   -110966.52   -13.447185    180556.74  0.059040032 
   76000    296.72118   -111809.58    -110982.6    135.86166    180581.79  0.059031839 
   76100    293.72195   -111810.63   -110992.01    347.90347    180627.59  0.059016873 
   76200     291.2851   -111805.92   -110994.09    20.905336    180673.18  0.059001981 
   76300    283.69871   -111782.55   -110991.87   -268.10454    180720.69   0.05898647 
   76400    280.64894   -111769.37   -110987.19    -89.34746    180756.88   0.05897466 
   76500    298.47783   -111811.41   -110979.54   -146.34612    180777.31  0.058967993 
   76600    285.03963   -111764.17   -110969.75    305.67604    180750.78  0.058976649 
   76700    295.01127   -111780.52    -110958.3   -162.11406    180719.87  0.058986735 
   76800    289.15714   -111753.66   -110947.76    203.85082    180666.74  0.059004082 
   76900    304.64688   -111784.78   -110935.71   -99.303634    180607.91  0.059023303 
   77000    302.78452   -111770.59   -110926.71    385.87155    180562.03  0.059038301 
   77100    296.77465    -111748.5   -110921.38   -366.27967    180518.21  0.059052632 
   77200    298.03365   -111746.28   -110915.65    122.17878    180435.67  0.059079645 
   77300    305.03139   -111762.53   -110912.39    616.36131    180334.23  0.059112877 
   77400    299.76297   -111744.75    -110909.3    12.937999    180262.55  0.059136383 
   77500    304.99779   -111757.56   -110907.51   -170.48525    180204.01  0.059155596 
   77600    307.01473   -111762.51   -110906.84    389.92582    180148.78   0.05917373 
   77700    311.55511   -111776.24   -110907.92   -96.391583    180113.18  0.059185427 
   77800    293.45301   -111728.28   -110910.41   -64.126251    180072.63  0.059198754 
   77900    298.76216   -111747.07    -110914.4    381.78758     180022.9  0.059215109 
   78000    291.36551    -111733.6   -110921.55   -74.810438    179981.36  0.059228776 
   78100    299.61879   -111767.77   -110932.72    248.37541    179935.47  0.059243878 
   78200    299.34424   -111779.56   -110945.27   -12.761119    179871.94  0.059264805 
   78300    293.88405   -111778.94   -110959.87   -30.223629    179816.55  0.059283061 
   78400    290.02701   -111780.78   -110972.46    143.39327    179764.01  0.059300387 
   78500    286.62543   -111780.21   -110981.37   -60.173307    179699.42  0.059321703 
   78600    280.79121   -111770.68    -110988.1    319.20538    179636.38   0.05934252 
   78700    293.92729   -111810.13   -110990.94     85.64521    179623.71  0.059346704 
   78800    295.57844   -111814.96   -110991.16   -378.70756    179626.23  0.059345873 
   78900     295.2844   -111810.76   -110987.79   -176.19662     179593.1  0.059356822 
   79000    292.26412   -111797.18   -110982.62   -64.514939    179506.44  0.059385477 
   79100    299.85401   -111808.83   -110973.12   -3.4669786    179412.98  0.059416412 
   79200    297.65358   -111789.81   -110960.23   -67.762704    179350.27  0.059437185 
   79300    300.89621   -111783.64   -110945.02   -314.32405     179313.5  0.059449376 
   79400    306.64036   -111785.97   -110931.34   -602.66844    179290.63  0.059456958 
   79500     306.4965   -111775.91   -110921.69   -99.116707    179262.89  0.059466157 
   79600    311.28485   -111784.42   -110916.85   -68.970897    179222.28  0.059479632 
   79700    306.86812   -111771.13   -110915.87    709.94285    179214.43  0.059482237 
   79800    297.28825   -111744.02   -110915.46   -280.45786    179245.09  0.059472062 
   79900    300.00809    -111752.3   -110916.16   -549.72447    179248.28  0.059471006 
   80000    296.94479   -111744.95   -110917.35    76.054068    179213.38  0.059482587 
   80100    307.35808   -111774.78   -110918.16    81.654727    179150.93   0.05950332 
   80200    299.88918   -111755.89   -110920.08   -232.47237    179085.53   0.05952505 
   80300    296.30291   -111748.45   -110922.64     -298.924    179020.44  0.059546695 
   80400      304.733   -111775.06   -110925.75    139.24217     178943.5  0.059572298 
   80500    290.49293   -111740.72    -110931.1   -55.181033    178852.06  0.059602756 
   80600    298.28099   -111766.82   -110935.49   -552.41262    178703.89  0.059652174 
   80700    289.04664   -111744.18   -110938.59   -166.13634     178499.7  0.059720411 
   80800    294.96199   -111763.66   -110941.58    36.833607    178274.67  0.059795794 
   80900    295.28492    -111765.9   -110942.93   -11.473923    178082.41  0.059860349 
   81000    301.85856   -111788.37   -110947.07     303.1028    177922.65    0.0599141 
   81100    281.39903   -111734.34   -110950.07   -108.15657    177785.39  0.059960356 
   81200     277.9025    -111726.4   -110951.87   -134.36441    177627.27  0.060013732 
   81300    289.13914   -111756.45   -110950.61    69.544772    177418.17  0.060084463 
   81400    295.83851   -111769.68   -110945.16    118.62507    177222.42  0.060150827 
   81500    301.87885   -111777.21   -110935.86   -412.55084    177053.11   0.06020835 
   81600    300.91207   -111762.07   -110923.41    -74.78369    176886.48  0.060265067 
   81700    298.38028   -111743.38   -110911.78    -299.0108    176720.14  0.060321791 
   81800     312.1788   -111770.47   -110900.41    594.03471    176514.94  0.060391917 
   81900    304.76515   -111740.95   -110891.55   -494.67043    176303.54  0.060464331 
   82000    311.59622   -111756.18   -110887.74     162.9122    176099.22  0.060534485 
   82100    304.28452   -111735.06      -110887   -203.02217    175919.54  0.060596313 
   82200    307.79678    -111746.1   -110888.25   -34.164074    175759.58  0.060651462 
   82300    300.49335   -111730.82   -110893.33   -205.95057    175592.73  0.060709094 
   82400    317.88654   -111785.82   -110899.85   -140.11862    175445.08  0.060760185 
   82500    302.34753   -111752.94   -110910.28     101.8303    175292.74  0.060812988 
   82600    298.25437   -111755.51   -110924.25    478.88451    175119.06  0.060873303 
   82700    303.05062   -111783.63   -110939.01    -334.0234    174955.04   0.06093037 
   82800    290.09879   -111760.76   -110952.24    -22.28837    174793.46  0.060986694 
   82900    298.97399   -111795.12   -110961.87    341.59098    174620.69  0.061047034 
   83000    286.06507   -111763.52   -110966.24   -269.79714    174455.31  0.061104906 
   83100    291.36751   -111780.84   -110968.78   -26.282988    174289.87   0.06116291 
   83200    294.93932   -111791.72   -110969.71   -236.18606    174130.45  0.061218906 
   83300    292.29603   -111782.42   -110967.77   -347.83351    173952.99  0.061281356 
   83400    303.00386    -111808.8   -110964.31   -317.01206    173792.89   0.06133781 
   83500     309.7846   -111823.81   -110960.42   -302.35078    173657.93  0.061385479 
   83600    290.97966   -111767.95   -110956.97   -232.50512    173504.15  0.061439885 
   83700    295.49389   -111775.93   -110952.37    136.68817    173350.96  0.061494181 
   83800    292.94531   -111763.91   -110947.46   -39.204024    173200.84  0.061547481 
   83900    295.41189    -111763.8   -110940.47    94.169808    173057.13   0.06159859 
   84000    300.16494   -111769.51   -110932.93   -73.227996    172913.98  0.061649587 
   84100    302.55748   -111768.54   -110925.29   -401.26804    172768.64  0.061701448 
   84200    301.83082   -111758.54   -110917.32    307.51286    172587.69  0.061766139 
   84300    296.98155   -111737.99   -110910.29    637.33865    172382.96  0.061839497 
   84400    303.67521   -111749.66    -110903.3   -79.194755    172146.62  0.061924395 
   84500    303.95807   -111745.23   -110898.08   -493.26156    171914.29  0.062008083 
   84600     309.7658   -111759.96   -110896.63   -155.42101    171651.74  0.062102926 
   84700    296.20407      -111721   -110895.47     114.8682     171344.5  0.062214284 
   84800    300.07357   -111732.55   -110896.23   -516.17272    171035.49  0.062326687 
   84900    303.40222   -111745.98   -110900.38   -346.37325     170734.6  0.062436525 
   85000    305.66658   -111759.05   -110907.13   -111.85555    170435.62  0.062546054 
   85100    294.18782   -111743.54   -110923.62   -50.530121     170134.9  0.062656604 
   85200    295.17092   -111772.48   -110949.82    121.65464    169839.76  0.062765489 
   85300    291.91051   -111788.68   -110975.11    45.834455    169542.98  0.062875355 
   85400    287.62141   -111789.13   -110987.52    440.84664    169258.76  0.062980939 
   85500    297.22547   -111820.58   -110992.19    286.19285    169001.07  0.063076969 
   85600    289.12853   -111798.41   -110992.59    56.785047       168739  0.063174935 
   85700    289.74661   -111797.52   -110989.98    434.99169     168459.8  0.063279639 
   85800    298.85061   -111817.18   -110984.26    129.59457    168194.48  0.063379461 
   85900    293.00964   -111792.49   -110975.86   -267.86859    167959.92  0.063467971 
   86000    303.45275   -111810.47   -110964.73   -357.48375    167729.66  0.063555101 
   86100    298.90199   -111783.54   -110950.49   -86.775356    167514.17  0.063636857 
   86200    286.30367   -111736.45   -110938.51   -165.94209    167294.45  0.063720435 
   86300    305.96006   -111780.16   -110927.43    333.73302    167063.05  0.063808697 
   86400    302.21076   -111761.52   -110919.24    230.31757    166832.92  0.063896713 
   86500      301.643    -111754.3    -110913.6    279.29111    166602.26  0.063985179 
   86600    292.36519   -111725.45   -110910.62   -336.86129    166365.47  0.064076248 
   86700     308.4289   -111766.51    -110906.9    62.981718    166139.57  0.064163375 
   86800    306.76074   -111761.47   -110906.51    279.52332     165899.9   0.06425607 
   86900    297.01043   -111735.65   -110907.87    308.11417    165642.02  0.064356106 
   87000    293.60206   -111725.89    -110907.6   0.59267957    165369.18  0.064462285 
   87100    300.84374   -111745.18   -110906.71    22.734424    165098.49  0.064567978 
   87200     303.6884   -111755.56   -110909.17    191.24147    164831.49  0.064672565 
   87300    293.26551   -111730.99   -110913.64   -22.546928    164548.93  0.064783621 
   87400    290.85808   -111730.44    -110919.8    296.98487    164240.38  0.064905327 
   87500    295.35089   -111753.03   -110929.87   -536.40653    163926.13   0.06502975 
   87600    304.07211   -111790.87    -110943.4   -83.277728    163603.49  0.065157996 
   87700    308.34542   -111817.12   -110957.74   -53.142329    163257.47  0.065296094 
   87800    282.50006   -111759.25   -110971.91   -195.31121    162905.21  0.065437291 
   87900    281.92295   -111767.06   -110981.32    259.52494    162538.54  0.065584909 
   88000    283.15544   -111775.02   -110985.85    202.77838    162179.91  0.065729937 
   88100    295.65974   -111808.65   -110984.63    638.85016    161851.94  0.065863132 
   88200    291.45765   -111793.13   -110980.82    420.69973     161556.9  0.065983411 
   88300    302.90165   -111817.77   -110973.57    381.51127    161263.33  0.066103529 
   88400    308.15448   -111823.42   -110964.58    438.07656    160980.28  0.066219759 
   88500    294.05853    -111774.3   -110954.75   -83.023277     160727.7  0.066323822 
   88600    297.32229   -111772.86    -110944.2   -135.92427    160468.82  0.066430821 
[...]
  978700    299.06311   -111900.43   -111066.93   -5906.5556    10134.518    1.0518581 
  978800     298.9259   -111915.35   -111082.23    2853.4039    10134.399    1.0518705 
  978900    288.33746   -111899.72   -111096.11    2038.2419    10134.483    1.0518618 
  979000    285.69887   -111901.41   -111105.15    1312.2444    10133.427    1.0519714 
  979100    282.47325   -111897.61   -111110.34    3156.1388    10131.024    1.0522209 
  979200    299.67018   -111947.21   -111112.02    6887.1517    10130.121    1.0523147 
  979300    286.59393   -111909.04   -111110.29    -2191.465    10131.754    1.0521451 
  979400    289.79268   -111911.39   -111103.72    6090.3444    10133.722    1.0519408 
  979500    283.79358   -111885.47   -111094.52    9292.9525    10136.371    1.0516658 
  979600    289.66087   -111888.01   -111080.71    -1912.985    10138.394     1.051456 
  979700    297.44599   -111895.09   -111066.09    3586.2009    10140.237    1.0512649 
  979800    297.48298   -111883.08   -111053.98    3837.8081    10142.138    1.0510679 
  979900    305.43842   -111896.13   -111044.85    6496.0262    10145.886    1.0506795 
  980000    299.68112   -111873.46   -111038.23    879.94626    10151.937    1.0500533 
  980100    298.19932   -111864.46   -111033.36   -10363.794    10156.709      1.04956 
  980200    293.97604   -111849.33      -111030   -6859.8723    10159.776    1.0492432 
  980300    306.98276   -111883.73   -111028.15   -2329.9243    10162.306    1.0489819 
  980400    297.41661   -111857.73   -111028.82   -4423.3333    10163.995    1.0488076 
  980500    299.08556    -111863.4   -111029.83     4064.029    10165.392    1.0486635 
  980600    303.88169   -111877.46   -111030.52   -3418.9527    10168.557    1.0483371 
  980700    305.22798   -111884.02   -111033.34    7946.6944    10171.588    1.0480247 
  980800    304.82031   -111885.81   -111036.26   -4954.2849    10175.466    1.0476252 
  980900    299.09086   -111873.65   -111040.06   -585.94642    10178.861    1.0472758 
  981000    293.81433   -111865.57    -111046.7   -1026.2193    10181.658    1.0469881 
  981100    293.67775   -111876.53   -111058.03    668.37658    10184.952    1.0466496 
  981200    286.22395   -111870.46   -111072.74   -4076.0491    10188.216    1.0463143 
  981300    283.74002   -111877.54   -111086.74     6050.159     10190.26    1.0461044 
  981400     281.9523    -111883.8   -111097.99    5728.7573    10192.275    1.0458975 
  981500    287.52318   -111906.47   -111105.12   -2247.6133    10194.695    1.0456493 
  981600     282.4532   -111895.47   -111108.26    3952.1349     10198.13    1.0452971 
  981700    287.49708   -111909.45   -111108.18   -5329.5221    10200.735    1.0450301 
  981800    296.14253   -111929.64   -111104.27   -1444.0542    10203.123    1.0447856 
  981900    297.71953   -111927.11   -111097.35   -1017.9194    10205.638    1.0445281 
  982000     290.3213   -111895.82   -111086.68     3079.244    10207.548    1.0443327 
  982100    293.34774   -111890.69   -111073.12    1234.7983    10208.912     1.044193 
  982200    300.04786   -111893.99   -111057.74    -4845.035    10209.643    1.0441183 
  982300     297.8008   -111874.64   -111044.65    6577.6155    10208.761    1.0442085 
  982400    301.44774    -111875.2   -111035.05   -1853.0619     10208.16      1.04427 
  982500    297.79817   -111859.86   -111029.88     6111.887    10207.289    1.0443591 
  982600    302.98889   -111872.52   -111028.07   -411.54919     10206.61    1.0444286 
  982700    298.23299   -111860.14   -111028.95    1271.6624    10205.354    1.0445571 
  982800    314.73468    -111907.1   -111029.92    212.12287    10202.563    1.0448429 
  982900    299.25419   -111866.39   -111032.36   -1256.5489    10199.531    1.0451535 
  983000    299.85666   -111872.85   -111037.13   -65.284989    10196.654    1.0454484 
  983100    310.00385    -111906.2   -111042.21   -4503.7438    10194.837    1.0456347 
  983200    313.13512   -111922.81   -111050.08    4075.9636    10194.725    1.0456462 
  983300    301.47142   -111897.55   -111057.33   -284.87302    10195.581    1.0455584 
  983400    297.71158   -111895.03   -111065.29    -248.2339    10195.982    1.0455173 
  983500    293.19487   -111889.61   -111072.46   -2138.5186    10195.572    1.0455593 
  983600    290.29682   -111888.41   -111079.33   -3691.7642    10195.039     1.045614 
  983700    296.78626    -111911.8   -111084.64    7282.9653    10193.988    1.0457218 
  983800    304.39372   -111936.99   -111088.62     10325.63    10194.441    1.0456754 
  983900     290.0851   -111900.16   -111091.68    5574.9292    10195.523    1.0455643 
  984000    297.04175   -111920.33   -111092.46    6895.8337    10197.559    1.0453556 
  984100    301.65079   -111933.56   -111092.85     6966.622     10199.81    1.0451249 
  984200    290.37949   -111898.75   -111089.45   -6730.9405     10202.21    1.0448791 
  984300    290.47909   -111890.24   -111080.66   -5080.1077    10202.148    1.0448854 
  984400     301.5303   -111905.26   -111064.88   -2951.4656    10201.092    1.0449936 
  984500    302.20169   -111888.11   -111045.86    -704.2992    10200.497    1.0450545 
  984600    304.18501   -111878.48    -111030.7   -5792.5326    10200.682    1.0450355 
  984700    307.49595   -111877.43   -111020.42   -1315.5405    10200.474    1.0450568 
  984800    308.19221   -111872.41   -111013.46    4947.1282    10199.258    1.0451815 
  984900    308.08037   -111869.67   -111011.03   -9960.6457    10198.395    1.0452699 
  985000     306.1633    -111863.1   -111009.81   -4854.7926    10196.303    1.0454843 
  985100    302.50594      -111854    -111010.9   -1144.4639    10193.083    1.0458147 
  985200     298.6779   -111846.71   -111014.28    2025.4695    10188.735    1.0462609 
  985300     303.8316   -111865.34   -111018.54    2954.6797    10184.779    1.0466673 
  985400    308.35839   -111884.68   -111025.26   -5549.0215    10180.251    1.0471329 
  985500    293.37129   -111850.12   -111032.48    5277.5913    10173.681     1.047809 
  985600    293.82213   -111861.74   -111042.84   -2261.7536    10166.494    1.0485498 
  985700    299.52927   -111887.38   -111052.57    2011.1437    10159.634    1.0492579 
  985800    304.00269   -111911.38   -111064.11    10250.241    10153.074    1.0499358 
  985900    301.31112   -111915.84   -111076.07   -169.84162    10144.682    1.0508043 
  986000    289.99603   -111893.76   -111085.53     3150.457    10135.868     1.051718 
  986100     295.8802   -111917.53    -111092.9   -1545.6961     10126.79    1.0526609 
  986200    296.15638   -111924.49   -111099.08    3738.1338    10117.436    1.0536341 
  986300    284.77625   -111895.07   -111101.38   -1102.6033    10107.719     1.054647 
  986400    298.79609   -111935.14   -111102.38    7287.9517    10097.523    1.0557119 
  986500    299.79876   -111936.21   -111100.65   -1413.3255    10087.121    1.0568005 
  986600    288.79228   -111902.52   -111097.64    4659.8218    10077.716    1.0577868 
  986700    294.56389   -111911.45   -111090.48   -3249.2631    10069.254    1.0586758 
  986800    288.45415   -111883.23    -111079.3   -5369.1194    10060.756      1.05957 
  986900    313.22773   -111934.36   -111061.38    1285.8071    10050.773    1.0606224 
  987000    300.25478   -111874.58   -111037.76    4109.2013     10039.88    1.0617732 
  987100    307.26629   -111874.01   -111017.65   -3208.4959    10029.301    1.0628932 
  987200    301.48584   -111847.93   -111007.67     3558.286    10020.053    1.0638742 
  987300    304.70158   -111853.49   -111004.27   -5040.4152    10012.709    1.0646545 
  987400    311.66412   -111873.33    -111004.7    12158.401    10008.451    1.0651074 
  987500    303.27006    -111852.7   -111007.46   -654.47178    10006.822    1.0652808 
  987600      308.319   -111872.81    -111013.5   -4013.2507    10006.324    1.0653339 
  987700    308.59455   -111881.39   -111021.32    2716.9802    10006.208    1.0653462 
  987800     308.9753   -111891.76   -111030.62    66.608682    10008.058    1.0651493 
  987900    307.93897   -111901.11   -111042.86    10499.038    10011.293     1.064805 
  988000    303.97377   -111901.48   -111054.29   -10046.665    10016.715    1.0642287 
  988100     300.6151   -111900.99   -111063.16    11563.635    10022.555    1.0636086 
  988200    296.84429   -111896.39   -111069.07    2134.2496    10029.222    1.0629015 
  988300    290.13946   -111882.08   -111073.45     2585.389    10037.136    1.0620635 
  988400     293.1852   -111892.85   -111075.73    8292.3438    10046.274    1.0610974 
  988500    299.05302    -111909.8   -111076.32    7780.7281    10055.198    1.0601557 
  988600    304.35824   -111922.05   -111073.78   -206.08556    10062.781    1.0593568 
  988700    283.55845   -111859.53   -111069.23   -3151.8032    10069.601    1.0586393 
  988800    299.25301   -111893.98   -111059.94   -4283.4686    10077.672    1.0577914 
  988900    293.61251   -111866.66   -111048.35     -2660.92    10086.622    1.0568529 
  989000     298.9926   -111868.14   -111034.83   -5259.1908    10095.156    1.0559594 
  989100     298.1658    -111851.8    -111020.8    -8055.844     10102.27    1.0552158 
  989200    303.42124   -111854.65      -111009   -6347.2925    10109.314    1.0544805 
  989300    303.42561   -111846.73   -111001.06   -2370.5135      10116.1    1.0537732 
  989400    300.89794   -111834.14   -110995.52   -3276.6517    10123.223    1.0530318 
  989500    300.51753   -111831.38   -110993.82     7645.903    10131.828    1.0521374 
  989600    298.84659   -111827.37   -110994.47    3820.0349    10142.161    1.0510655 
  989700    304.02475    -111844.2   -110996.87   -4691.1831    10153.245    1.0499181 
  989800    310.93276   -111867.98    -111001.4    186.15832    10164.172    1.0487894 
  989900    312.25637   -111878.17   -111007.89   -5198.9199    10173.458    1.0478321 
  990000    311.96433   -111884.54   -111015.08    1951.5338    10181.434    1.0470112 
  990100    301.03317   -111861.85   -111022.85   -1106.4964    10188.456    1.0462896 
  990200    308.76558   -111891.11   -111030.57   -1319.1709    10195.094    1.0456084 
  990300    303.89477   -111883.51   -111036.54   -1765.8824     10201.63    1.0449384 
  990400    294.95875   -111864.17    -111042.1   -5288.2264    10207.504    1.0443372 
  990500    298.57602   -111877.01   -111044.87    1576.6157    10212.102     1.043867 
  990600    300.67481   -111887.57   -111049.58    7033.5556    10213.716     1.043702 
  990700    297.86091   -111884.35    -111054.2    10519.888    10215.312    1.0435389 
  990800    294.95128   -111879.28   -111057.24    4449.8736     10218.66    1.0431969 
  990900    297.29295   -111888.36   -111059.79    3065.2945    10222.561    1.0427989 
  991000     301.6836   -111903.38   -111062.57    5304.4299    10227.317     1.042314 
  991100    296.18623    -111891.7   -111066.21   -1410.6435    10232.404    1.0417958 
  991200    284.85902   -111864.83   -111070.92    959.61717    10235.294    1.0415016 
  991300    297.35747   -111904.88   -111076.13   -3665.1366    10236.253    1.0414041 
  991400    300.69753   -111921.13   -111083.07    1367.2487    10236.682    1.0413604 
  991500    293.54955   -111909.44    -111091.3     12026.86    10238.202    1.0412058 
  991600    285.24578   -111895.36   -111100.36   -6600.8005    10239.786    1.0410447 
  991700    288.52904   -111912.48   -111108.33   -3784.6179    10239.851    1.0410381 
  991800     288.3941   -111919.36   -111115.59     567.6974    10238.817    1.0411432 
  991900    287.45475   -111921.33   -111120.17   -5599.7475    10236.619    1.0413668 
  992000    289.10438   -111925.69   -111119.94   -9625.1107    10235.192     1.041512 
  992100    285.41807   -111910.02   -111114.54    1470.9885    10233.114    1.0417235 
  992200    283.81987   -111894.88   -111103.85    -8309.523     10231.65    1.0418725 
  992300    290.90102   -111898.94   -111088.18    4130.5319    10230.878    1.0419511 
  992400    295.56185   -111897.16   -111073.41    5138.2019    10231.633    1.0418743 
  992500     302.7398   -111903.54   -111059.79   -2650.8069    10232.266    1.0418098 
  992600    293.13026   -111866.75   -111049.78    1194.7667    10232.047    1.0418321 
  992700    302.38312   -111884.34   -111041.58   -2105.0457    10232.238    1.0418127 
  992800    303.10959   -111880.49    -111035.7   -3741.7842    10234.425    1.0415901 
  992900    297.79086   -111861.19   -111031.23   -1116.3313    10236.623    1.0413664 
  993000    309.62382   -111891.11   -111028.17    7422.9796     10237.81    1.0412457 
  993100     302.2208   -111868.92   -111026.61    1712.0171    10237.527    1.0412744 
  993200    304.57714   -111875.45   -111026.58   -2241.2464    10237.553    1.0412718 
  993300    299.01925   -111861.34   -111027.96    2096.8121    10237.798    1.0412469 
  993400    303.89961   -111878.13   -111031.14   -5757.5025    10239.858    1.0410375 
  993500    315.97221    -111916.2   -111035.57    -5525.906     10242.63    1.0407557 
  993600    296.61669   -111869.52   -111042.83   -2545.6345    10244.928    1.0405222 
  993700    300.58597   -111892.69   -111054.94    7639.5089     10243.88    1.0406287 
  993800     292.3324   -111882.91   -111068.16   -334.32583    10240.763    1.0409455 
  993900    299.06483   -111915.87   -111082.35   -5165.6954    10235.981    1.0414317 
  994000    296.98652   -111921.79   -111094.07   -3254.5069    10231.094    1.0419292 
  994100    297.20681   -111930.05   -111101.72    452.41954    10226.329    1.0424147 
  994200    296.53284   -111934.29   -111107.83   -1279.2318    10220.206    1.0430392 
  994300    299.46233   -111945.64   -111111.02    1488.6049    10211.487    1.0439297 
  994400    283.65014   -111901.04   -111110.49   -7103.6106    10201.701    1.0449312 
  994500    281.76385   -111892.07   -111106.78   -998.63378    10191.634    1.0459633 
  994600    292.17907   -111914.41   -111100.09    1209.1627    10180.259    1.0471321 
  994700    298.38338   -111923.65   -111092.04    1142.7346    10167.433     1.048453 
  994800    292.87506   -111898.38   -111082.13   -81.818481    10155.783    1.0496557 
  994900     289.3676   -111882.54   -111076.06    -540.1002    10146.928    1.0505717 
  995000    293.02845   -111887.25   -111070.57    284.81985    10139.024    1.0513906 
  995100     292.9631    -111883.2    -111066.7   -563.17495    10129.818    1.0523462 
  995200    295.45027   -111886.81   -111063.37   -3003.7992    10119.879    1.0533798 
  995300    311.13698    -111926.2   -111059.05     900.0696    10110.041    1.0544047 
  995400    294.92828   -111875.77   -111053.79   -12971.497    10100.381    1.0554132 
  995500    299.28556    -111882.9   -111048.78   -1022.9973    10089.005    1.0566032 
  995600    296.18445   -111866.82   -111041.34    -547.5458    10076.818    1.0578811 
  995700    301.97435   -111876.02    -111034.4   -7941.9151    10064.607    1.0591646 
  995800    303.36222   -111873.01   -111027.52    6320.4197    10052.204    1.0604714 
  995900    309.75842   -111885.64   -111022.32    3060.3407    10040.579    1.0616993 
  996000    303.18678   -111862.99   -111017.99    3795.4631    10029.109    1.0629135 
  996100    308.12558   -111873.54   -111014.77   -6608.4129    10016.371    1.0642652 
  996200    300.40128   -111850.54    -111013.3    257.11093    10002.095    1.0657843 
  996300    301.17371   -111854.37   -111014.98    2556.9874    9987.8795    1.0673012 
  996400    302.59725   -111862.86   -111019.51   -3387.1719    9974.8972    1.0686902 
  996500    316.15349   -111909.11   -111027.97    1288.8039    9962.3114    1.0700404 
  996600    309.14942   -111904.95   -111043.33   -80.112568    9950.0503    1.0713589 
  996700    284.21897   -111854.03   -111061.89    7597.0528     9937.719    1.0726883 
  996800    285.13133   -111871.73   -111077.05     1802.931    9925.9322    1.0739621 
  996900    284.60292   -111878.84   -111085.63    4639.5015    9914.5186    1.0751985 
  997000    300.87299   -111928.29   -111089.74     4924.909    9903.9859    1.0763419 
  997100    293.34535   -111908.76   -111091.19   -5641.4447    9893.8849    1.0774408 
  997200    293.00823   -111905.89   -111089.26    4808.9184    9884.0827    1.0785093 
  997300    291.92718   -111899.12    -111085.5   -7786.6641    9873.2124    1.0796968 
  997400    290.19836   -111888.43   -111079.63   -4912.2636    9859.1336    1.0812386 
  997500    296.84454   -111899.16   -111071.83    9176.6534    9843.8853    1.0829134 
  997600    301.08695   -111902.14   -111062.99    9068.8818     9830.093    1.0844328 
  997700    296.05865   -111878.38   -111053.25    4295.4435    9819.0276    1.0856549 
  997800    297.91231   -111872.71   -111042.41   -5805.2374    9808.3779    1.0868337 
  997900    301.95057    -111874.1   -111032.55   -2442.3757    9796.0882    1.0881972 
  998000    309.77821   -111890.33   -111026.96    2814.9042    9781.9581    1.0897691 
  998100    314.04238   -111898.18   -111022.92   -1969.9456    9766.7011    1.0914714 
  998200    309.20674   -111884.65   -111022.87    5451.0356    9752.2677    1.0930868 
  998300    302.10571   -111866.54   -111024.56    16366.983    9741.5922    1.0942847 
  998400    300.12774   -111863.71   -111027.24   -6276.2626     9733.099    1.0952396 
  998500    301.93291   -111871.78   -111030.28   -3738.6262    9723.8562    1.0962806 
  998600    302.67431   -111875.86   -111032.29    1301.8266    9714.1649    1.0973743 
  998700    302.29421   -111876.32   -111033.81   -4744.2693    9705.6255    1.0983399 
  998800     298.3076   -111866.57   -111035.17   -2617.5739    9698.3324    1.0991658 
  998900    294.34197   -111857.68   -111037.33    2584.6623    9691.2728    1.0999665 
  999000    298.35096   -111872.19   -111040.67   -1720.5001     9685.023    1.1006763 
  999100    306.31328   -111896.57   -111042.86    1596.3166    9679.4232    1.1013131 
  999200     293.2765   -111862.46   -111045.08   -101.37295     9675.078    1.1018077 
  999300    290.96856   -111857.98   -111047.04    6616.0393     9672.676    1.1020813 
  999400    292.35894   -111864.31   -111049.49    2529.9412     9671.631    1.1022004 
  999500    292.44782   -111867.71   -111052.64   -5015.5611    9670.7411    1.1023018 
  999600     298.9591   -111888.81   -111055.59    6948.8597    9669.5024     1.102443 
  999700    301.99265   -111901.54   -111059.87    7101.6002    9668.9142    1.1025101 
  999800    287.66507   -111867.07   -111065.33   -3421.6275    9669.8683    1.1024013 
  999900    287.59301   -111872.33   -111070.79   -5194.8734    9671.5878    1.1022053 
 1000000    294.11819   -111894.15   -111074.43    3198.0633    9673.9959    1.1019309 
Loop time of 78753.3 on 1 procs for 1000000 steps with 936 atoms

Performance: 0.274 ns/day, 87.504 hours/ns, 12.698 timesteps/s
99.9% CPU use with 1 MPI tasks x no OpenMP threads

MPI task timing breakdown:
Section |  min time  |  avg time  |  max time  |%varavg| %total
---------------------------------------------------------------
Pair    | 64484      | 64484      | 64484      |   0.0 | 81.88
Neigh   | 141.76     | 141.76     | 141.76     |   0.0 |  0.18
Comm    | 15.201     | 15.201     | 15.201     |   0.0 |  0.02
Output  | 3.0677     | 3.0677     | 3.0677     |   0.0 |  0.00
Modify  | 14108      | 14108      | 14108      |   0.0 | 17.91
Other   |            | 1.024      |            |       |  0.00

Nlocal:    936 ave 936 max 936 min
Histogram: 1 0 0 0 0 0 0 0 0 0
Nghost:    8610 ave 8610 max 8610 min
Histogram: 1 0 0 0 0 0 0 0 0 0
Neighs:    573386 ave 573386 max 573386 min
Histogram: 1 0 0 0 0 0 0 0 0 0

Total # of neighbors = 573386
Ave neighs/atom = 612.592
Neighbor list builds = 10000
Dangerous builds not checked

Please see the log.cite file for references relevant to this simulation

Total wall time: 21:52:33
