LAMMPS (09 Jan 2020)
package omp 0
WARNING: OpenMP support not enabled during compilation; using 1 thread only. (../fix_omp.cpp:125)
units			real
atom_style		charge
read_data input_files/d3600000_lmps.dat
  orthogonal box = (-15 -15 -15) to (50 50 50)
  1 by 1 by 1 MPI processor grid
  reading atoms ...
  936 atoms
  read_data CPU = 0.00136685 secs
reset_timestep		0

pair_style              reax/c lmp_control lgvdw yes
pair_coeff              * * ffield C H O N

neighbor		2.5 bin
neigh_modify		delay 0 every 5 check no

fix			qeq all qeq/reax 1 0.0 10.0 1e-6 reax/c
fix			bonds all reax/c/bonds 500 bonds.reaxc
fix			npt all npt temp 300 300 100 iso 1.0 1.0 2000
fix 1 all reax/c/species 10 10 100 species.out cutoff 1 4 0.25
WARNING: Resetting reneighboring criteria for fix reax/c/species (../fix_reaxc_species.cpp:97)


thermo			100
thermo_style            custom step temp pe etotal press vol density
thermo_modify           flush yes

timestep		0.25

dump			1 all custom 1000 dump/dump.reax.npt.* id type xu yu zu
restart			500 restart.npt300 restart.npt300
run 1000000
Last active /omp style is pair_style reax/c/omp
Neighbor list info ...
  update every 100 steps, delay 0 steps, check no
  max neighbors/atom: 2000, page size: 100000
  master list distance cutoff = 12.5
  ghost atom cutoff = 12.5
  binsize = 6.25, bins = 11 11 11
  2 neighbor lists, perpetual/occasional/extra = 2 0 0
  (1) pair reax/c/omp, perpetual
      attributes: half, newton off, ghost, omp
      pair build: half/bin/newtoff/ghost/omp
      stencil: half/ghost/bin/3d/newtoff
      bin: standard
  (2) fix qeq/reax/omp, perpetual, copy from (1)
      attributes: half, newton off, ghost
      pair build: copy
      stencil: none
      bin: none
Per MPI rank memory allocation (min/avg/max) = 69.91 | 69.91 | 69.91 Mbytes
Step Temp PotEng TotEng Press Volume Density 
       0            0   -111790.48   -111790.48   -329.06852       274625  0.038816842 
     100    147.44991    -112187.8   -111776.85    302.24995    274608.04   0.03881924 
     200    175.63083   -112244.29   -111754.79   -81.662514    274581.72   0.03882296 
     300    176.73385   -112224.24   -111731.67    50.724347    274532.99  0.038829852 
     400    172.89124   -112185.62   -111703.76    78.215279    274435.09  0.038843703 
     500    187.71128   -112194.74   -111671.58    73.786349    274295.41  0.038863485 
     600    192.64123   -112174.83   -111637.93    422.21513    274151.92  0.038883825 
     700    191.13345   -112135.95   -111603.25   -321.46645    273993.63  0.038906289 
     800    197.12461   -112115.79   -111566.39    157.41105    273803.46  0.038933311 
     900    203.60659   -112095.78   -111528.32   -133.10311    273637.98  0.038956856 
    1000    218.17748   -112098.17    -111490.1    50.997096    273478.66  0.038979552 
    1100    221.89182   -112068.38   -111449.96    361.56022    273339.54   0.03899939 
    1200    216.51821   -112012.12   -111408.68     60.98733    273247.23  0.039012565 
    1300     241.5486   -112039.77   -111366.56   -61.688206    273216.06  0.039017016 
    1400    246.31404   -112012.05   -111325.56   -9.8831908    273196.78   0.03901977 
    1500    255.36722   -111996.13    -111284.4    48.652281    273191.95  0.039020459 
    1600    258.58369   -111964.73   -111244.04    71.105772     273177.5  0.039022523 
    1700    265.77792   -111944.53   -111203.79    -36.99763    273161.34  0.039024832 
    1800    276.24717      -111933   -111163.08   -172.95904    273182.25  0.039021844 
    1900    270.27595   -111878.25   -111124.98   -135.11065    273216.95  0.039016889 
    2000     292.4459   -111902.72   -111087.65    -16.05494    273247.69  0.039012499 
    2100    304.83134   -111903.75   -111054.17   -119.09877    273328.38  0.039000982 
    2200    294.21205   -111842.04   -111022.05    95.790631     273442.2  0.038984749 
    2300    305.13502   -111844.43      -110994    163.76934    273545.11  0.038970083 
    2400    301.39661   -111808.76   -110968.75    42.817244    273626.62  0.038958474 
    2500    304.82047   -111797.05   -110947.49    308.26273    273700.16  0.038948005 
    2600    304.27803   -111777.24    -110929.2    270.70524    273798.09  0.038934075 
    2700    306.68626   -111768.81   -110914.05    20.678056    273916.14  0.038917296 
    2800    306.14481   -111755.29   -110902.05    -133.3349    274074.05  0.038894873 
    2900    313.20426   -111768.19   -110895.27    51.071366     274219.9  0.038874185 
    3000    309.25428   -111754.81    -110892.9   -292.50004    274328.18  0.038858841 
    3100    322.69347   -111794.72   -110895.36    47.106323     274362.6  0.038853966 
    3200     326.3644   -111812.84   -110903.25    442.42916    274387.88  0.038850387 
    3300    309.27422   -111778.83   -110916.87   -137.65663    274410.75  0.038847149 
    3400    304.01982   -111781.76   -110934.44   -16.617659    274404.56  0.038848025 
    3500    306.52574   -111808.89   -110954.58   -202.33076    274346.67  0.038856223 
    3600    299.64649   -111811.18   -110976.05   -126.45991    274261.04  0.038868355 
    3700     296.7095   -111823.94   -110996.99     55.93105    274174.74  0.038880588 
    3800    293.53185   -111834.01   -111015.92   -292.83533    274059.81  0.038896894 
    3900    305.67517   -111884.13    -111032.2    116.49005    273924.65  0.038916087 
    4000    298.98993   -111881.48   -111048.18   -79.422197     273860.9  0.038925145 
    4100    296.24622   -111885.46   -111059.81   -268.17075    273850.98  0.038926556 
    4200    283.93358   -111858.89   -111067.55   -297.78874    273824.85  0.038930271 
    4300     296.6324   -111897.29   -111070.56     80.72133    273767.85  0.038938376 
    4400    289.99274   -111879.27   -111071.04    214.60817    273704.21   0.03894743 
    4500    288.37144   -111873.46   -111069.75   -84.131185    273664.76  0.038953043 
    4600    290.10605   -111874.24    -111065.7   -122.55218    273697.86  0.038948333 
    4700     293.4188   -111874.82   -111057.04    27.313418    273795.49  0.038934445 
    4800    296.09997   -111870.74    -111045.5    184.50494    273894.75  0.038920335 
    4900    299.32012   -111866.39   -111032.16   -86.431089    273979.38  0.038908313 
    5000    301.94167   -111860.65   -111019.12    2.6717861    274075.81  0.038894624 
    5100    300.32089   -111840.48   -111003.46    135.60298    274180.81  0.038879729 
    5200    296.66074   -111815.24   -110988.43   -304.05556    274280.76  0.038865561 
    5300    294.74962   -111795.62   -110974.13     3.788421    274347.83  0.038856059 
    5400    314.24281   -111835.65   -110959.84    111.86798    274401.49   0.03884846 
    5500    309.11003   -111809.65   -110948.14   -262.47594    274460.66  0.038840085 
    5600    306.35947   -111793.14    -110939.3    204.19273    274532.24  0.038829958 
    5700    299.14889   -111765.97   -110932.23   -177.56714    274644.02  0.038814155 
    5800     317.0009   -111811.51   -110928.01   -87.894523    274763.07  0.038797337 
    5900    319.14636   -111817.25   -110927.77   -33.435566    274860.27  0.038783617 
    6000    310.86681   -111795.45   -110929.04   -159.58218    274988.39  0.038765546 
    6100       307.04   -111791.08   -110935.34   -256.91106    275113.45  0.038747925 
    6200    313.90241   -111821.37    -110946.5    260.88686    275190.98  0.038737009 
    6300    308.40686   -111819.75    -110960.2   -216.48359    275277.13  0.038724886 
    6400    302.76129   -111818.46   -110974.65   -157.45249    275348.44  0.038714856 
    6500    305.12109   -111838.94   -110988.55    54.661287    275435.07  0.038702679 
    6600     301.3543   -111842.81   -111002.92    96.257747    275586.69  0.038681387 
    6700    291.52209    -111826.8   -111014.31   -61.514092    275758.36  0.038657307 
    6800    302.86973   -111866.02    -111021.9   -21.852192    275905.57  0.038636681 
    6900    287.12053   -111826.34   -111026.11    65.241753    276001.54  0.038623246 
    7000    288.67926   -111833.41   -111028.85    16.224022    276068.39  0.038613893 
    7100    291.09185   -111840.01   -111028.72    205.65106    276110.42  0.038608016 
    7200    287.68405   -111828.68   -111026.89   -222.89926    276161.87  0.038600822 
    7300    296.60397   -111847.84   -111021.19    98.040724    276193.26  0.038596436 
    7400     303.2883   -111857.65   -111012.37   -242.65202    276200.04  0.038595489 
    7500    294.68798   -111823.19   -111001.88    30.878212    276134.82  0.038604605 
    7600     293.6902   -111809.19   -110990.66    200.49013     276043.6   0.03861736 
    7700     307.8812   -111838.33   -110980.25   -189.40735    275980.42  0.038626202 
    7800    306.49802    -111823.2   -110968.97   -86.137059    275886.18  0.038639397 
    7900    303.24264   -111804.11   -110958.95    405.47469    275793.68  0.038652356 
    8000    302.64036   -111793.42   -110949.94    109.27099    275715.03  0.038663382 
    8100    303.63792   -111788.74   -110942.48    68.339553    275622.43   0.03867637 
    8200    306.32855      -111792   -110938.25    122.36065    275528.92  0.038689498 
    8300    313.72295   -111809.57   -110935.21    46.118206    275391.29  0.038708832 
    8400    310.76424   -111803.35   -110937.24   -208.94749    275238.12  0.038730374 
    8500    303.45023   -111789.24   -110943.51    44.084675    275068.87  0.038754205 
    8600    314.84623   -111829.45   -110951.96   -230.33889    274942.43  0.038772027 
    8700    301.70621    -111805.1   -110964.23   -187.44208    274799.41  0.038792206 
    8800    306.59661   -111832.21    -110977.7    208.41152    274616.79  0.038818004 
    8900    300.04194   -111827.41   -110991.18    125.96092     274416.9  0.038846279 
    9000    298.60167   -111835.13   -111002.91   -16.481996    274213.08  0.038875152 
    9100    289.44863   -111820.21    -111013.5    97.417126    274010.72  0.038903862 
    9200    289.69762   -111828.65   -111021.25   -190.87572    273844.35  0.038927497 
    9300    299.58531   -111862.22   -111027.26    286.59428    273679.33  0.038950969 
    9400    296.20403    -111858.2   -111032.66    14.494316    273505.21  0.038975766 
    9500    297.30175   -111865.45   -111036.85   -140.33954    273332.28  0.039000426 
    9600    292.45374   -111853.44   -111038.35    20.243231    273189.33  0.039020833 
    9700    286.83797   -111837.51   -111038.07   -31.426246    273025.89  0.039044192 
    9800    289.37883   -111843.22   -111036.71    173.01889    272867.96   0.03906679 
    9900    294.73776   -111855.57   -111034.12   -66.686693    272795.88  0.039077112 
   10000    290.24383   -111837.85   -111028.92   -307.06287    272788.07  0.039078231 
   10100    293.80427   -111838.92   -111020.07    39.867242    272780.67  0.039079292 
   10200    294.26744   -111831.02   -111010.88   -346.58135    272781.06  0.039079235 
   10300    303.34364   -111845.32   -110999.89    287.87659    272764.18  0.039081655 
   10400    293.85785   -111808.72   -110989.72   -51.744507    272745.89  0.039084275 
   10500    295.80122   -111804.13   -110979.71   -49.939299    272715.17  0.039088678 
   10600    304.12889   -111816.63   -110969.01   -18.663406    272641.96  0.039099174 
   10700    303.48212   -111804.02    -110958.2   -24.763231    272499.39   0.03911963 
   10800    306.26233   -111802.79   -110949.22   -146.06321    272354.21  0.039140483 
   10900    306.15036   -111794.39   -110941.13    4.7259665    272209.63  0.039161272 
   11000    308.22697   -111796.01   -110936.96   -110.02276    272091.45  0.039178282 
   11100    302.29769   -111777.86   -110935.34    138.42775    271939.05  0.039200238 
   11200    302.56526   -111780.25   -110936.99   -241.35182    271757.15  0.039226476 
   11300    311.80563   -111809.58   -110940.56    68.921719    271599.48  0.039249249 
   11400    308.29146   -111804.95   -110945.72   -361.91733    271503.82  0.039263077 
   11500    304.66156   -111801.89   -110952.78    197.60093    271374.46  0.039281792 
   11600     289.3568   -111768.41   -110961.96     318.9542    271234.08  0.039302124 
   11700    309.62587   -111834.72   -110971.77     28.22325    271099.58  0.039321623 
   11800    300.48631   -111818.77    -110981.3    2.6657985    270921.11  0.039347525 
   11900    293.65085   -111809.16   -110990.74    65.601929    270714.43  0.039377566 
   12000     292.1405   -111814.71    -111000.5    169.17625    270526.66  0.039404898 
   12100    305.66716   -111861.04   -111009.13   -116.09896    270297.48  0.039438308 
   12200     300.9975   -111857.14   -111018.24   -181.72174    270031.33   0.03947718 
   12300    301.67821   -111865.67   -111024.87    84.824176    269751.11  0.039518189 
   12400    291.83724   -111845.67    -111032.3   -268.78123     269514.8  0.039552839 
   12500    285.84159   -111832.87   -111036.21   -9.3374292    269300.29  0.039584344 
   12600    299.57819    -111874.1   -111039.16   -212.87414    269076.51  0.039617265 
   12700    302.49318   -111881.93   -111038.87   -73.878308    268818.98  0.039655218 
   12800    292.74734   -111851.31   -111035.41    121.76117    268563.12  0.039692997 
   12900    298.41447   -111860.91   -111029.21     -195.855    268311.37  0.039730242 
   13000    301.23014   -111861.02   -111021.47    163.07962    268018.92  0.039773593 
   13100    306.00368    -111861.8   -111008.95    418.89178    267694.05  0.039821862 
   13200     298.3632   -111825.97   -110994.41   -203.02318    267413.07  0.039863703 
   13300    306.88979   -111833.93   -110978.61   -367.14912    267141.36  0.039904249 
   13400    303.57841   -111813.41   -110967.32    53.311801    266785.49  0.039957478 
   13500    315.29366   -111840.72   -110961.98    277.98399    266398.07  0.040015588 
   13600    303.53986   -111806.77   -110960.79    162.98402    266001.49  0.040075247 
   13700    301.53714    -111801.7    -110961.3   -9.6223783    265645.77  0.040128911 
   13800    304.30525   -111813.47   -110965.36   -65.742692    265358.91  0.040172292 
   13900     309.0826   -111832.76   -110971.33    -121.5574     265136.3  0.040206021 
   14000    313.06468   -111850.42    -110977.9   -319.22445    264999.67  0.040226749 
   14100    303.73611   -111830.68   -110984.15    327.09643    264899.22  0.040242003 
   14200    303.36999   -111835.23   -110989.72   -58.200198    264834.09  0.040251901 
   14300    307.39858   -111851.34    -110994.6    43.585668    264740.17  0.040266181 
   14400    304.20913   -111846.81   -110998.96    127.58167    264636.23  0.040281995 
   14500    301.33425   -111843.29   -111003.46    290.81966    264539.36  0.040296746 
   14600    299.81864   -111842.13   -111006.52    60.903181    264445.29  0.040311081 
   14700    304.10139   -111856.96   -111009.41   -354.40214     264298.7  0.040333439 
   14800    293.30764   -111829.38   -111011.91    337.07419    264055.04  0.040370657 
   14900    300.20336   -111849.61   -111012.93   -43.558277    263790.59  0.040411129 
   15000    302.04828   -111856.34   -111014.52    476.51898    263498.37  0.040455945 
   15100     295.8228   -111840.35   -111015.88   -105.71257    263189.98  0.040503349 
   15200    301.06466   -111853.96   -111014.87   -64.849087    262825.47  0.040559522 
   15300    301.21264   -111851.81   -111012.31   -203.86378    262431.73  0.040620375 
   15400    298.58686   -111840.22   -111008.04   -50.693662    262012.29  0.040685402 
   15500    296.82619   -111828.94   -111001.67   -68.516564    261543.23  0.040758368 
   15600     308.3332      -111846   -110986.66     50.71939    261020.62  0.040839973 
   15700    307.51644    -111825.8   -110968.73    144.92177    260517.67  0.040918819 
   15800    314.41867   -111826.41    -110950.1    356.13221    260023.76  0.040996544 
   15900    314.84992    -111814.1   -110936.59   -306.05718    259599.66  0.041063518 
   16000    316.01319   -111810.36   -110929.62   -390.50723    259212.07  0.041124918 
   16100    331.36113   -111851.59   -110928.06   -135.36973     258838.7   0.04118424 
   16200    308.51411   -111792.75   -110932.91   -82.720931     258466.9  0.041243484 
   16300    316.03098   -111822.24   -110941.44    261.91799    258119.76  0.041298952 
   16400    305.41665   -111805.62   -110954.41   -147.11431    257779.75  0.041353425 
   16500    303.65241   -111814.33   -110968.03    96.940139    257409.81  0.041412856 
   16600    308.32741   -111838.82   -110979.49   -8.7999071    257041.75  0.041472155 
   16700    306.05427   -111840.05   -110987.06   -39.903928    256675.99  0.041531253 
   16800    307.36749   -111849.74   -110993.09    121.83755    256316.62  0.041589481 
   16900    297.88392   -111828.41   -110998.19    76.411882    255945.75  0.041649746 
   17000    293.16355   -111820.57   -111003.51    97.385882    255564.71  0.041711843 
   17100    304.38988   -111854.52   -111006.17   -15.739256    255160.04  0.041777997 
   17200    299.91096   -111844.17    -111008.3    220.55015    254740.45  0.041846811 
   17300     302.4865   -111852.68   -111009.63   -65.871516    254378.42  0.041906367 
   17400    295.92565   -111834.45   -111009.69   -54.641829    254060.12  0.041958868 
   17500    291.36773   -111822.37   -111010.31    150.10247    253756.25  0.042009114 
   17600    294.27356   -111829.59   -111009.43   -25.323679     253441.6   0.04206127 
   17700    304.90673   -111859.17   -111009.37    510.49004    253077.75  0.042121741 
   17800    295.91143   -111832.89   -111008.17    345.29634     252702.5  0.042184289 
   17900    308.45575      -111868   -111008.31   -174.32615    252342.49  0.042244473 
   18000    288.40527   -111812.25   -111008.45    108.39997    251962.91  0.042308114 
   18100    294.04485   -111826.46   -111006.94   -330.54095    251583.92  0.042371846 
   18200      296.706    -111830.6   -111003.66    20.995538    251219.82  0.042433258 
   18300    297.69327   -111825.94   -110996.25   -168.87627    250830.75  0.042499077 
   18400    294.88476   -111809.59   -110987.73   -5.9696552     250407.5  0.042570911 
   18500    306.31005   -111832.02   -110978.32   -225.97824    249940.18  0.042650506 
   18600    308.84447   -111830.72   -110969.95   -175.59941    249454.53  0.042733541 
   18700    311.07429   -111830.46   -110963.48    115.16985    248975.73   0.04281572 
   18800    304.83361   -111808.04   -110958.45   -42.468632    248539.31  0.042890903 
   18900    307.03892   -111810.66   -110954.93   -50.852942    248102.08  0.042966489 
   19000     314.0253   -111829.83   -110954.62    135.90469    247645.93  0.043045632 
   19100     295.0727   -111778.81   -110956.42   -16.551015    247243.27  0.043115735 
   19200    312.43397   -111830.55   -110959.78   -147.45993    246859.91  0.043182691 
   19300    302.16401   -111809.42   -110967.27    -3.074983    246469.04  0.043251174 
   19400    301.64718   -111819.74   -110979.03   -73.522184    246083.99   0.04331885 
   19500    292.26538   -111808.73   -110994.17   -149.35389    245678.09   0.04339042 
   19600    291.74346    -111822.6    -111009.5    120.95693    245266.37  0.043463257 
   19700    295.45136   -111845.75   -111022.31   -2.5129845     244865.5  0.043534411 
   19800    294.46904    -111852.7      -111032    64.954203    244494.42  0.043600485 
   19900     298.5186   -111870.31   -111038.32     162.8648    244109.88  0.043669168 
   20000    288.44234   -111846.01   -111042.11    -69.67541    243700.18  0.043742582 
   20100    292.35545   -111857.97   -111043.16   -118.18523    243270.72  0.043819805 
   20200    287.66713   -111842.61   -111040.87    66.412015    242852.44  0.043895278 
   20300    298.77427   -111871.25   -111038.54   -179.99863     242423.9  0.043972874 
   20400    294.43407    -111854.7   -111034.09   -245.84963    241972.34  0.044054934 
   20500    308.00751   -111886.59   -111028.15     192.9914    241549.32  0.044132086 
   20600    289.08797   -111827.82   -111022.12     221.9889    241159.81  0.044203366 
   20700    301.30346   -111855.75      -111016    239.61225    240797.57  0.044269862 
   20800    303.79732      -111856    -111009.3   -13.266668    240491.24  0.044326252 
   20900    295.01486   -111823.94   -111001.72   -116.75437    240190.38  0.044381776 
   21000    301.05598   -111831.89   -110992.83    253.58838    239883.41  0.044438569 
   21100    304.39659   -111829.47    -110981.1   -172.04285    239585.41  0.044493842 
   21200     296.2178   -111794.66   -110969.08   -31.935508    239294.73   0.04454789 
   21300    313.08566   -111825.98   -110953.39    155.71458    239022.09  0.044598704 
   21400    305.98745   -111788.08   -110935.27   -140.84387    238756.63   0.04464829 
   21500    316.21925   -111798.43   -110917.11    -101.2977    238456.23  0.044704538 
   21600    324.58443   -111809.55   -110904.91    344.85936    238176.94  0.044756959 
   21700    329.49584   -111819.15   -110900.83   -21.964773    237944.09  0.044800758 
   21800    323.95367   -111808.61   -110905.73     165.6571    237756.77  0.044836054 
   21900    312.55215   -111787.94   -110916.83   -285.63441    237625.59  0.044860806 
   22000    316.78829   -111812.16   -110929.25    81.547421    237523.68  0.044880052 
   22100    317.35789   -111822.89   -110938.39    165.67858     237460.3  0.044892031 
   22200    314.31855   -111821.87   -110945.84    70.520291    237382.36  0.044906772 
   22300     306.1023    -111806.2   -110953.08    76.785278    237295.23  0.044923261 
   22400    310.99021   -111827.54   -110960.79    13.439579    237200.02  0.044941292 
   22500    303.91863   -111816.26   -110969.23   -48.539184       237099  0.044960441 
   22600    292.56736   -111793.13   -110977.73    -13.01821    236960.89  0.044986645 
   22700    294.62328   -111807.01   -110985.88    -213.3177    236785.66  0.045019936 
   22800    297.04241   -111822.35   -110994.48   -306.88084    236583.64  0.045058379 
   22900    301.32838   -111843.59   -111003.77    229.45686    236333.55   0.04510606 
   23000    293.19442   -111828.62   -111011.47    369.89811    236097.17  0.045151221 
   23100    305.29105   -111869.08   -111018.21    118.39013    235841.61  0.045200146 
   23200    292.51173   -111839.11   -111023.86    152.43166     235551.3  0.045255854 
   23300    297.44827   -111856.92   -111027.91  -0.72762493    235220.47  0.045319506 
   23400    297.03074   -111856.75   -111028.91    100.44309     234882.3  0.045384754 
   23500     293.0367   -111844.41    -111027.7   -201.58151    234579.89  0.045443262 
   23600    292.84598   -111839.76   -111023.58    6.3884833    234275.08  0.045502387 
   23700     302.9598      -111860   -111015.63    195.49301    233914.88  0.045572454 
   23800     305.8969   -111857.92   -111005.37     273.5027    233546.86  0.045644268 
   23900    297.63969    -111821.3   -110991.76   -115.14491    233212.93  0.045709624 
   24000    303.45296   -111824.47   -110978.73   -280.14005    232864.63  0.045777993 
   24100    302.29775   -111809.58   -110967.06    102.23585    232530.15  0.045843842 
   24200    305.67759   -111809.69   -110957.75    22.771881    232242.59  0.045900604 
   24300    301.56312   -111792.44   -110951.97   -473.11036    232009.04  0.045946811 
   24400    297.54411   -111778.48   -110949.21    106.17781       231784  0.045991421 
   24500    311.17442   -111816.93   -110949.67    211.29137    231558.48  0.046036212 
   24600    312.65132   -111824.94   -110953.57   -222.60249    231301.64  0.046087332 
   24700    305.48921   -111810.98   -110959.56    276.78008    231045.44  0.046138437 
   24800    302.66642   -111808.86   -110965.31   -7.2707006    230820.62  0.046183376 
   24900    300.41982    -111808.2   -110970.91   -127.25956    230600.32  0.046227496 
   25000    301.55404   -111814.66   -110974.22     35.24516    230355.84  0.046276558 
   25100    303.40729   -111822.94   -110977.33    66.390964    230074.35  0.046333176 
   25200    299.11737    -111813.6   -110979.94   -295.79152    229785.39  0.046391441 
   25300    302.36584   -111826.97   -110984.25    287.22827    229494.75  0.046450194 
   25400    285.83802   -111783.99   -110987.34    61.669842    229243.41   0.04650112 
   25500    298.31836   -111821.47   -110990.04    -112.5379    228971.66  0.046556309 
   25600    297.88722   -111823.28   -110993.05    38.242439    228686.67  0.046614327 
   25700     303.1851   -111841.43   -110996.43    138.76254    228432.87  0.046666119 
   25800    311.55383   -111869.22    -111000.9   -85.588728    228224.54  0.046708716 
   25900    303.89421    -111853.5   -111006.53   -40.391531    228018.66  0.046750889 
   26000    293.50929   -111829.62    -111011.6    111.27571    227755.81  0.046804844 
   26100    304.17119   -111863.16   -111015.42   -6.1451695    227481.59  0.046861266 
   26200    299.98458   -111855.24   -111019.17   -227.99076    227219.77  0.046915264 
   26300    292.61531   -111839.26   -111023.73   -92.635973    226953.74  0.046970257 
   26400    295.52982   -111852.26   -111028.61   -197.05462    226702.22  0.047022369 
   26500    289.60261   -111842.39   -111035.25    -401.3917    226491.05  0.047066211 
   26600    281.78856   -111828.82   -111043.46    104.52041    226324.37  0.047100872 
   26700    294.45127   -111873.99   -111053.33    135.12969    226231.22  0.047120266 
   26800    300.29601   -111899.37   -111062.43    307.31254    226172.13  0.047132578 
   26900    284.95201   -111862.82   -111068.64   -12.753551    226138.44  0.047139598 
   27000    284.39637   -111863.88   -111071.25   -185.91463    226099.73  0.047147669 
   27100    291.39693   -111881.39   -111069.25    91.773944    226051.33  0.047157765 
   27200    294.43256   -111883.05   -111062.45    280.75735    225990.25  0.047170509 
   27300    289.23665   -111856.42    -111050.3   -326.46682    225917.01  0.047185802 
   27400    290.54853   -111843.81   -111034.04    359.44886    225814.96  0.047207126 
   27500    293.48729   -111836.39   -111018.42   -588.55304    225696.32  0.047231942 
   27600    303.28602   -111852.39   -111007.11   -65.983499    225532.61  0.047266227 
   27700    304.17333   -111847.65    -110999.9    159.90514    225307.69  0.047313412 
   27800    307.14409   -111851.73    -110995.7   -199.76938    225067.51  0.047363901 
   27900    301.08337   -111831.76   -110992.63    170.61245    224784.82  0.047423466 
   28000    300.46727   -111827.56   -110990.14    16.591361    224535.14    0.0474762 
   28100     293.1059   -111805.73   -110988.83   -2.0408378     224325.8  0.047520506 
   28200    299.25682   -111821.88   -110987.83   -282.03459    224152.12  0.047557325 
   28300    303.86747   -111833.51   -110986.61    108.52792    224000.87  0.047589436 
   28400    308.68331   -111845.41   -110985.09    370.19786    223870.77  0.047617094 
   28500    295.57489   -111808.82   -110985.03   -365.48263    223739.45  0.047645042 
   28600    305.16998   -111836.71   -110986.18   -121.52212    223582.75  0.047678434 
   28700    297.87638   -111818.36   -110988.16   -434.59482    223388.83  0.047719823 
   28800    303.44806   -111837.03    -110991.3    132.67906    223161.47   0.04776844 
   28900    308.06573   -111857.24   -110998.64    291.04709     222961.5  0.047811283 
   29000    300.42232   -111845.56   -111008.26   -104.82069    222804.69  0.047844933 
   29100    303.94601   -111866.16   -111019.05    112.93322    222665.65  0.047874808 
   29200      291.036   -111843.95   -111032.82   -663.00819    222529.74  0.047904049 
   29300    281.53803   -111829.31   -111044.65   -104.44698    222364.39   0.04793967 
   29400    287.67474   -111853.81   -111052.05    46.218523    222168.29  0.047981984 
   29500    296.80936   -111883.43    -111056.2    468.72365    221950.97  0.048028965 
   29600    281.44754   -111841.68   -111057.27    99.899532    221758.54  0.048070642 
   29700    280.29473   -111834.69   -111053.49   -36.199722    221603.81  0.048104206 
   29800    292.72087   -111859.85   -111044.02   -94.464326    221457.64  0.048135956 
   29900     294.6875   -111851.31      -111030   -351.80849    221303.43  0.048169499 
   30000    303.78166   -111861.98   -111015.33     7.692073    221144.03  0.048204219 
   30100    301.77783   -111844.04   -111002.97   -196.73823    220966.26     0.048243 
   30200    289.48427   -111802.24   -110995.43    548.97337    220763.59  0.048287289 
   30300    304.24501   -111837.27   -110989.32   -230.62693    220551.85  0.048333647 
   30400     290.4386   -111794.28   -110984.81    174.53505    220350.15   0.04837789 
   30500    301.82223   -111821.98   -110980.78    110.27464    220161.67  0.048419306 
   30600    294.40487   -111797.91   -110977.39   -140.73991    219952.87  0.048465271 
   30700    303.22039   -111820.33   -110975.23    161.97695    219719.81  0.048516678 
   30800    310.43419   -111839.73   -110974.53   -252.65802    219482.45  0.048569146 
   30900    309.65291   -111839.67   -110976.65   -23.695195    219223.25  0.048626573 
   31000    310.07856   -111845.82   -110981.62    174.06856     218980.4  0.048680501 
   31100     306.5223    -111843.8   -110989.51     59.26349    218743.65  0.048733187 
   31200    293.02044   -111816.58   -110999.91    63.853022    218518.27  0.048783451 
   31300    301.61628   -111851.28   -111010.66   -286.37731    218302.61  0.048831645 
   31400    301.57723   -111861.86   -111021.34    372.57273    218101.21  0.048876737 
   31500    298.25865   -111864.31   -111033.04   -141.68592    217938.81  0.048913157 
   31600    295.95158   -111865.36   -111040.53    93.014909    217738.31  0.048958198 
   31700    301.40658   -111884.87   -111044.84    22.240667    217510.63  0.049009446 
   31800    291.12491   -111858.11   -111046.73    164.27111    217319.52  0.049052545 
   31900    290.23387   -111856.61   -111047.71    181.74841    217175.19  0.049085144 
   32000     298.0481   -111877.46   -111046.79    167.97046    217000.39  0.049124683 
   32100    294.63258    -111865.9   -111044.74    157.40836    216753.01  0.049180749 
   32200    290.77442   -111852.09   -111041.69     -196.178    216485.31  0.049241563 
   32300    294.90301   -111859.72    -111037.8    396.63374    216267.74  0.049291103 
   32400    292.70935   -111848.89    -111033.1   -76.323129    216120.24  0.049324743 
   32500    303.91029   -111875.76   -111028.75    308.75168    215996.23  0.049353062 
   32600     286.8042   -111824.16   -111024.82   -286.10982    215858.52  0.049384548 
   32700    307.41398   -111878.15   -111021.37    117.40728    215667.98  0.049428178 
   32800    282.39364   -111805.67   -111018.62   -189.63275    215475.72   0.04947228 
   32900    295.79112   -111838.03   -111013.64    141.45852    215257.45  0.049522446 
   33000    291.71218    -111820.6   -111007.58   -530.39864    215017.43  0.049577726 
   33100    295.95753    -111826.3   -111001.45    173.65692    214756.85  0.049637882 
   33200    301.29919   -111835.83   -110996.09   -146.99688    214519.55  0.049692793 
   33300     295.1414    -111812.5   -110989.93   -464.52967    214285.29  0.049747118 
   33400    296.67178   -111812.94   -110986.09    79.163597    214070.25  0.049797089 
   33500    308.22169   -111842.16   -110983.13     213.7264    213891.24  0.049838765 
   33600    302.09911   -111822.75   -110980.78   -225.63726    213731.35  0.049876048 
   33700    318.93893   -111871.66   -110982.76    267.69337     213535.7  0.049921747 
   33800    312.28514   -111859.52   -110989.16   -124.98102    213322.51  0.049971639 
   33900    316.75909   -111884.64   -111001.82   -117.56274    213119.97   0.05001913 
   34000    297.39388   -111846.29   -111017.43   -73.039708    212905.23   0.05006958 
   34100    305.60311   -111884.42   -111032.68    74.010407    212696.38  0.050118744 
   34200    291.69012   -111858.35   -111045.39    159.00982    212508.56  0.050163039 
   34300    287.37869   -111853.63   -111052.69   -435.78594    212371.05  0.050195519 
   34400    293.88873   -111874.89    -111055.8    220.66414    212212.82  0.050232948 
   34500      295.901   -111879.29    -111054.6    311.19319    212034.05  0.050275299 
   34600    304.41134   -111900.87   -111052.46    100.90639    211878.33   0.05031225 
   34700    291.05439   -111861.87   -111050.69   -241.69399    211761.72  0.050339955 
   34800    293.48747   -111863.42   -111045.46    28.513974    211678.12  0.050359835 
   34900    298.95832   -111872.62   -111039.41    220.99437    211613.35  0.050375249 
   35000    299.41997   -111866.88   -111032.38   -499.38396    211555.04  0.050389134 
   35100    300.41921   -111862.97   -111025.68    544.31392    211467.46  0.050410004 
   35200    298.47495   -111850.71   -111018.84   -315.61776    211396.41  0.050426946 
   35300    308.59009   -111872.15   -111012.09   -446.73346    211325.64  0.050443833 
   35400     298.1735   -111836.89   -111005.86   -418.27159     211216.9  0.050469804 
   35500    300.21647   -111836.25   -110999.53    140.27098    211091.78  0.050499717 
   35600    311.31631   -111863.87   -110996.21    375.69643     210970.3  0.050528798 
   35700     303.5191   -111841.24   -110995.31   -371.70928    210869.77  0.050552885 
   35800    297.87932    -111823.6    -110993.4   -345.69834    210769.77  0.050576871 
   35900    307.57048   -111849.97   -110992.75    83.577594    210695.67  0.050594659 
   36000    300.15082    -111830.8   -110994.26   -265.25359    210637.92  0.050608529 
   36100    304.49759    -111844.3   -110995.65   -155.10594    210558.16  0.050627701 
   36200     309.8454   -111861.64   -110998.08   -194.99786    210424.21  0.050659928 
   36300    302.77891    -111844.8   -111000.94   -318.71998    210273.12   0.05069633 
   36400    308.48622   -111863.66   -111003.89   -19.802074    210131.68  0.050730453 
   36500    302.75071   -111850.31   -111006.52   -58.737157    210004.04  0.050761287 
   36600     291.1202   -111819.64   -111008.28     94.05136    209882.06  0.050790789 
   36700    298.67574   -111844.31   -111011.88   -376.57333     209735.3   0.05082633 
   36800    311.14211    -111881.6   -111014.43    297.88766     209586.6  0.050862391 
   36900    296.82307   -111844.97   -111017.71   -270.95672    209475.14  0.050889454 
   37000    292.50785   -111836.16   -111020.92    203.94923    209376.84  0.050913346 
   37100    293.77261   -111841.84   -111023.08    52.165659    209255.07  0.050942974 
   37200    293.19384   -111842.52   -111025.37    206.50545    209100.67  0.050980589 
   37300    292.39012    -111843.1   -111028.19   -113.77027    208925.88  0.051023241 
   37400    296.85783    -111858.8   -111031.44    40.837486     208758.3    0.0510642 
   37500    294.30638    -111856.6   -111036.35    99.832623    208591.69  0.051104986 
   37600    301.15561   -111879.53   -111040.19    482.21123    208429.39  0.051144779 
   37700    291.71366   -111855.56   -111042.54    80.869289    208213.96  0.051197699 
   37800    294.61377   -111860.97   -111039.86     188.8768    208003.11  0.051249596 
   37900    290.61704   -111845.68   -111035.71    233.05634    207808.05  0.051297701 
   38000    290.39139   -111836.09   -111026.75   -164.52959    207630.02  0.051341687 
   38100    296.86515   -111842.26   -111014.88    395.55818    207471.53  0.051380906 
   38200    302.52748   -111845.93   -111002.77    308.03841    207337.25  0.051414182 
   38300    298.90173   -111824.02   -110990.97   -15.883973    207219.21  0.051443471 
   38400      303.354   -111826.48   -110981.01    119.11799    207108.66  0.051470931 
   38500    310.13467   -111838.42   -110974.06    97.256488    206999.13  0.051498164 
   38600    304.96394   -111819.64   -110969.69   -657.72112    206880.19  0.051527772 
   38700    303.85492   -111815.77   -110968.91    134.55131    206716.33  0.051568617 
   38800    319.92741   -111861.97   -110970.31    275.26215    206545.29  0.051611321 
   38900    303.97164   -111820.51   -110973.32    324.35524    206409.58  0.051645255 
   39000    304.61036   -111828.14   -110979.18   -231.00914    206303.74  0.051671751 
   39100    294.59418   -111807.78   -110986.73    119.80917    206198.42  0.051698144 
   39200     301.6197   -111835.86   -110995.23   -55.944519    206081.78  0.051727403 
   39300     302.6564    -111850.1   -111006.58    57.337644    205954.05  0.051759483 
   39400    309.47397   -111882.52      -111020   -151.66435    205812.55   0.05179507 
   39500    296.64008   -111861.49   -111034.74    287.40967    205647.24  0.051836706 
   39600    290.51409   -111856.38    -111046.7   -79.579561    205472.28  0.051880845 
   39700    288.54174   -111859.08    -111054.9   -543.10839    205342.47  0.051913643 
   39800    286.44664   -111856.12   -111057.77     20.85524    205239.91  0.051939583 
   39900    291.44164    -111869.9   -111057.63   -496.25257    205142.94  0.051964135 
   40000    293.21529    -111873.4   -111056.19   -183.49788    204979.65   0.05200553 
   40100    300.88746   -111890.62   -111052.03   -206.40884    204795.98  0.052052171 
   40200     297.4918   -111875.55   -111046.42    105.64502    204633.09  0.052093606 
   40300    297.18649   -111869.52   -111041.25    -294.5839    204472.25  0.052134583 
   40400    304.46829   -111884.67    -111036.1    108.26869    204307.82  0.052176541 
   40500    299.77422   -111866.43   -111030.94   -724.64529    204171.53  0.052211369 
   40600    294.84661   -111847.83   -111026.08   -42.391131    204002.93  0.052254522 
   40700    301.64792   -111862.19   -111021.48   -3.9291831     203829.8  0.052298906 
   40800    299.73823   -111851.56   -111016.18    74.192683    203667.99  0.052340455 
   40900     294.2933   -111832.54   -111012.32    367.73674    203515.31  0.052379722 
   41000    311.05619   -111873.58   -111006.65    238.66173    203356.35  0.052420667 
   41100    306.84032   -111857.75   -111002.57    243.88493    203203.36  0.052460133 
   41200    295.09572   -111821.01   -110998.56   -60.205626     203055.5  0.052498333 
   41300    297.83118   -111822.44   -110992.37    56.427055    202926.96  0.052531587 
   41400    298.70549   -111819.71    -110987.2   -294.27531     202816.2  0.052560277 
   41500    311.36836   -111849.52   -110981.72    125.51147    202716.61  0.052586096 
   41600    309.03097   -111838.01   -110976.72    135.80524    202624.05  0.052610118 
   41700    300.31872   -111810.43   -110973.43    268.37202    202542.54  0.052631291 
   41800    312.49705   -111842.64   -110971.69    56.295187    202498.25  0.052642803 
   41900    307.92398   -111831.08   -110972.88    -83.22446    202494.47  0.052643786 
   42000    305.88878   -111829.98   -110977.45   -293.53962     202479.9  0.052647574 
   42100    295.00134   -111807.77   -110985.58    -552.1812    202433.61  0.052659612 
   42200    302.73836   -111841.71   -110997.96    -74.48866       202362  0.052678246 
   42300    295.73437   -111834.01   -111009.78    129.69674     202288.9  0.052697282 
   42400    294.30274   -111841.16   -111020.92   -359.57413    202231.46  0.052712251 
   42500    285.53542   -111825.38   -111029.57   -332.74526     202155.3  0.052732109 
   42600    301.20309   -111874.74   -111035.26    119.89571    202059.02  0.052757236 
   42700    296.49468   -111865.05    -111038.7    90.195282    201972.79  0.052779761 
   42800    297.68123   -111869.86   -111040.21    161.55019    201911.46  0.052795792 
   42900    287.32302   -111841.08    -111040.3    127.56358    201871.71  0.052806186 
   43000    299.56032   -111872.84   -111037.94   -197.66392    201842.37  0.052813864 
   43100    296.03434   -111858.78   -111033.71    365.18102    201802.21  0.052824374 
   43200    296.28097   -111852.96    -111027.2   -304.49381    201788.68  0.052827914 
   43300    300.95036   -111855.53   -111016.76   -324.80485    201739.96  0.052840675 
   43400    296.36475   -111830.21   -111004.22    -321.4708    201695.17  0.052852407 
   43500    306.18002   -111844.51   -110991.17   -216.33973    201602.24   0.05287677 
   43600    306.58269   -111833.67    -110979.2   -98.569566    201438.72  0.052919694 
   43700    303.68229   -111815.45   -110969.07    3.1463313    201245.21  0.052970579 
   43800    309.81442    -111824.3   -110960.83   -225.82748    201052.05   0.05302147 
   43900    309.95616   -111819.94   -110956.08     200.6625    200849.37  0.053074975 
   44000     305.3593   -111805.36   -110954.31   -192.32922    200612.87  0.053137545 
   44100    294.95178    -111776.3   -110954.25   -175.48376    200358.13  0.053205105 
   44200    304.91981   -111807.23    -110957.4   -476.97037    200106.48  0.053272015 
   44300    302.08232   -111805.27   -110963.35    -87.61047    199874.68  0.053333796 
   44400    300.50004   -111810.31    -110972.8    94.521617    199675.53  0.053386989 
   44500    303.53164   -111833.29   -110987.33   -161.62567    199490.05  0.053436628 
   44600    300.13147   -111842.07   -111005.59   -74.531702    199299.59  0.053487694 
   44700    300.03811   -111857.45   -111021.23    323.01307    199119.31  0.053536121 
   44800    305.48739   -111881.97   -111030.56    -56.66293    198961.16  0.053578675 
   44900    295.17878    -111855.3   -111032.62   -248.46859     198791.4  0.053624428 
   45000    306.45867   -111887.52    -111033.4   -23.441579    198619.64  0.053670803 
   45100    302.63763   -111878.49   -111035.02    96.227657    198456.32  0.053714971 
   45200    299.67893   -111872.65   -111037.42    92.001073    198290.83  0.053759799 
   45300    293.44899   -111856.77   -111038.91   -49.252872    198111.52  0.053808457 
   45400    287.84233   -111840.05   -111037.81    74.072103     197908.9  0.053863547 
   45500    299.31089    -111867.8    -111033.6   -2.4352786    197733.01   0.05391146 
   45600    299.73362   -111863.41   -111028.03     114.6272    197566.67   0.05395685 
   45700    307.27467   -111876.78   -111020.39   -16.548636    197409.14  0.053999909 
   45800    294.32435   -111832.59   -111012.29    64.811981    197266.07  0.054039072 
   45900    303.07336   -111848.82   -111004.13    281.29799    197137.69  0.054074264 
   46000    305.36969   -111847.04   -110995.96   -135.24419    197024.59  0.054105303 
   46100    306.44785   -111842.44   -110988.35    178.17002    196926.08  0.054132369 
   46200    306.83262   -111836.79   -110981.62   -191.40735    196875.87  0.054146174 
   46300    303.96354    -111823.3   -110976.14    159.09277    196825.34  0.054160076 
   46400    307.66349   -111829.09   -110971.61   -241.44934    196740.39   0.05418346 
   46500    314.35999   -111842.62   -110966.48    288.47165    196668.14  0.054203367 
   46600    304.72016   -111813.88   -110964.61   -338.89908     196630.6  0.054213714 
   46700    306.88727   -111821.88   -110966.57   -35.317952    196608.72  0.054219749 
   46800    307.67738   -111830.54   -110973.03     -475.432    196576.32  0.054228685 
   46900    317.62901   -111869.72   -110984.47    266.11028    196520.87  0.054243985 
   47000    304.81044    -111852.8   -111003.28    294.53481    196488.46  0.054252934 
   47100     292.7589   -111838.04   -111022.11   -319.40239    196468.37   0.05425848 
   47200    294.71673   -111856.35   -111034.96     -409.576       196458  0.054261346 
   47300    300.23682   -111880.17   -111043.39   -148.14129    196429.29  0.054269275 
   47400    293.23194   -111864.62   -111047.37   -125.57238    196379.32  0.054283086 
   47500    299.11422   -111883.13   -111049.48   -212.00414    196304.55  0.054303761 
   47600    287.02889   -111849.31   -111049.34   -291.01771    196181.87   0.05433772 
   47700    285.06648   -111841.43   -111046.93    90.080361    196014.22  0.054384194 
   47800    293.90253   -111859.68   -111040.56   -201.04885    195824.46  0.054436895 
   47900    292.06011   -111846.02   -111032.04   -220.52041    195634.19  0.054489839 
   48000    300.86962   -111859.54      -111021    174.26527     195468.2  0.054536111 
   48100    299.00217   -111844.21   -111010.87    178.54913    195345.81   0.05457028 
   48200    304.05031   -111849.85   -111002.44    2.5741538    195219.12  0.054605693 
   48300    297.19227   -111822.63   -110994.34    158.78017    195087.51  0.054642531 
   48400    286.49604   -111785.92   -110987.44     52.52709    194970.59    0.0546753 
   48500    304.74102   -111831.68   -110982.35    260.83149    194867.29  0.054704282 
   48600    296.02616   -111804.69   -110979.65    148.63455    194790.07  0.054725969 
   48700    300.74467   -111816.47   -110978.28   -10.366799    194752.66  0.054736482 
   48800    301.22923   -111817.29   -110977.74     159.3336    194723.58  0.054744655 
   48900    300.31538   -111816.92   -110979.92   -85.139791    194686.78  0.054755005 
   49000    296.33779   -111808.98   -110983.07    6.6530533    194634.33  0.054769758 
   49100     297.1626   -111814.55   -110986.34   -92.958521    194576.37  0.054786075 
   49200    304.41196   -111838.72    -110990.3   -152.90456    194475.29  0.054814549 
   49300    289.74649    -111802.8   -110995.26    -488.2892    194351.58   0.05484944 
   49400    296.57731   -111825.95   -110999.37   -91.971192    194195.13   0.05489363 
   49500    295.21309   -111825.53   -111002.76    260.25249    194025.98  0.054941484 
   49600    303.04683   -111849.11    -111004.5     81.11119    193877.84  0.054983464 
   49700     297.3506   -111835.37   -111006.64    66.053564    193760.87  0.055016657 
   49800    292.17595   -111823.12   -111008.81   -238.36786    193649.74  0.055048229 
   49900    298.49473   -111842.11   -111010.18   -635.28862     193510.7  0.055087783 
   50000    308.28471   -111870.28   -111011.07    -137.7314    193338.37  0.055136884 
   50100    304.53909   -111861.73   -111012.96    283.81529    193188.76  0.055179583 
   50200    297.04924    -111844.8    -111016.9   -27.915273    193054.41  0.055217983 
   50300     303.6767   -111869.61   -111023.25    426.18343    192947.86  0.055248476 
   50400    299.84741   -111869.06   -111033.37    243.18182    192869.72   0.05527086 
   50500    290.20074   -111853.71    -111044.9   -13.685411     192782.9  0.055295753 
   50600    300.87207   -111893.64   -111055.09   -206.28049    192712.97  0.055315818 
   50700    291.81431   -111875.69   -111062.39    31.253369    192634.32  0.055338401 
   50800    282.68363   -111855.41   -111067.55     422.1486    192541.16  0.055365176 
   50900    283.56816   -111859.28   -111068.96    94.016428    192455.01   0.05538996 
   51000    289.29576   -111872.85   -111066.57   -337.47341    192406.36  0.055403965 
   51100    293.64415   -111878.85   -111060.45    112.89699    192376.22  0.055412646 
   51200    300.68022   -111889.03   -111051.01   -101.74895    192338.01  0.055423654 
   51300    294.32179    -111858.9   -111038.61   -36.072649    192273.11  0.055442363 
   51400    296.22943   -111851.34   -111025.73    255.14852    192198.36  0.055463925 
   51500    310.33333   -111878.32   -111013.41   -337.23759    192086.74  0.055496154 
   51600    315.71083   -111882.79   -111002.88   -101.93297     191944.8  0.055537192 
   51700    300.92349   -111834.97   -110996.28   -11.487898     191797.7  0.055579788 
   51800    282.92054   -111778.39   -110989.87    57.359808    191637.92  0.055626127 
   51900    295.15855   -111807.12    -110984.5   -418.04711    191481.96  0.055671434 
   52000    295.67496   -111805.31   -110981.25    -114.0111    191324.94  0.055717125 
   52100    304.55175   -111828.89   -110980.09   -40.474155    191174.12  0.055761079 
   52200    316.27859   -111860.92   -110979.44   -398.49572     191013.1  0.055808087 
   52300     301.2314   -111820.34   -110980.79    370.35911    190841.85  0.055858163 
   52400     306.7728   -111838.77   -110983.78   -216.68304    190699.57  0.055899839 
   52500    296.46071    -111814.6   -110988.34   -128.39239    190569.09  0.055938113 
   52600    304.71562    -111843.8   -110994.54 -0.0072412048    190431.52  0.055978523 
   52700     290.3871   -111812.32      -111003   -197.89348    190317.12  0.056012173 
   52800    303.72014    -111862.1   -111015.62   -206.29704    190241.38  0.056034472 
   52900    296.59818   -111859.27   -111032.63   -228.82489    190155.47  0.056059788 
   53000    292.78903   -111867.92    -111051.9   -558.71912    190084.18  0.056080813 
   53100    285.38243   -111862.82   -111067.44   -453.40952    190026.97  0.056097698 
   53200    286.03672   -111873.27   -111076.07   -40.584381    189984.77  0.056110157 
   53300    287.40536   -111878.15   -111077.14    134.37761    189969.92  0.056114544 
   53400    280.24357   -111854.57   -111073.51    -402.6871    189963.65  0.056116395 
   53500    285.73119   -111863.39   -111067.04   -226.73512    189924.48   0.05612797 
   53600    293.21994   -111877.06   -111059.84   -68.745045    189850.45  0.056149857 
   53700    283.15521   -111841.05   -111051.88   -201.31603    189738.87  0.056182877 
   53800    303.63391   -111888.81   -111042.56    149.93414    189617.35  0.056218882 
   53900    296.22479   -111860.12   -111034.53   -14.994317    189522.61  0.056246986 
   54000    304.50037   -111875.07   -111026.41   -273.69731    189428.91  0.056274807 
   54100    297.38558   -111848.53    -111019.7    341.09666    189310.81  0.056309915 
   54200    293.34302   -111831.31   -111013.74    255.92602    189170.45  0.056351694 
   54300    287.75105   -111809.84   -111007.86   -41.613482    189073.95  0.056380455 
   54400    309.93849   -111865.44   -111001.63    -439.4751    188991.63  0.056405012 
   54500    296.61892   -111823.14   -110996.45     39.90481    188923.02  0.056425499 
   54600    292.21217   -111805.94   -110991.53   -95.699549    188873.16  0.056440393 
   54700    311.20501   -111854.22   -110986.87   -140.50828    188796.99  0.056463163 
   54800    306.64083   -111839.87   -110985.24    148.90052    188704.76  0.056490761 
   54900    304.99879   -111835.57   -110985.52   -16.465296    188608.41  0.056519617 
   55000     299.6306   -111821.46   -110986.38    -295.4337    188508.32  0.056549629 
   55100    296.92266    -111815.7   -110988.16    105.77151    188381.96  0.056587559 
   55200    301.44541   -111831.55    -110991.4   -349.76439    188242.99  0.056629335 
   55300    298.91505   -111831.18   -110998.08    745.40395    188108.37  0.056669863 
   55400    310.17415   -111873.78    -111009.3    96.960777    187991.43  0.056705114 
   55500    295.28205   -111850.88   -111027.92   -371.69255    187882.97  0.056737847 
   55600    297.92412   -111876.39   -111046.06    401.71839    187735.32   0.05678247 
   55700    275.37485   -111825.11   -111057.63    173.32472    187554.04  0.056837353 
   55800    291.43685   -111876.11   -111063.86    308.97452    187403.67  0.056882959 
   55900    297.95472   -111894.98   -111064.57   -268.09258    187305.28   0.05691284 
   56000    291.01255   -111873.56   -111062.49    191.05979    187215.78  0.056940046 
   56100    290.02925   -111867.24   -111058.91    172.21803    187134.61  0.056964744 
   56200    298.67015    -111882.8   -111050.39    454.80943    187049.21  0.056990753 
   56300    303.47256   -111886.46   -111040.67    280.66359    186985.13  0.057010285 
   56400    309.07439   -111892.61    -111031.2   -211.84921    186935.99   0.05702527 
   56500    310.80937    -111887.5   -111021.25    277.32566    186884.51   0.05704098 
   56600    293.62824   -111831.52   -111013.16   -25.152069    186843.64  0.057053457 
   56700    288.47825   -111810.37   -111006.36    326.25545    186815.41  0.057062078 
   56800    289.65906   -111807.86   -111000.56    181.86138     186821.7  0.057060157 
   56900     306.4913   -111850.65   -110996.44    536.36853    186842.56  0.057053784 
   57000    292.94659   -111808.42   -110991.96   -251.89918     186858.2  0.057049011 
   57100     297.7543   -111817.47   -110987.61    617.09805    186859.38   0.05704865 
   57200    295.94055   -111808.09   -110983.29    75.073664    186892.18  0.057038638 
   57300    302.54784   -111821.01   -110977.79    687.73082    186957.44  0.057018728 
   57400    304.41254   -111819.18   -110970.77    187.79842    187053.82  0.056989349 
   57500     299.4787   -111795.35   -110960.69    451.79025    187140.82  0.056962855 
   57600    326.28773    -111854.8   -110945.41    428.47199     187205.5  0.056943173 
   57700    311.78376   -111797.39   -110928.43   -303.17022    187271.45  0.056923122 
   57800    315.14083   -111791.29   -110912.97   -329.82326    187344.14  0.056901033 
   57900    317.89396   -111789.44   -110903.45   -115.54565    187362.72   0.05689539 
   58000     312.9972   -111772.99   -110900.65   -183.01735    187345.33  0.056900672 
   58100    308.30861   -111764.31   -110905.04    752.58539    187304.38  0.056913112 
   58200    317.09614   -111798.77   -110915.01    54.279874    187290.67  0.056917279 
   58300    308.40119   -111789.25   -110929.72   -19.532414    187290.86   0.05691722 
   58400    307.22435   -111802.18   -110945.92   -137.39285     187277.1  0.056921403 
   58500     294.6138   -111780.34   -110959.23   -452.54019    187192.92     0.056947 
   58600    297.84989    -111798.8   -110968.67    436.17145    187049.09  0.056990789 
   58700    302.04606   -111817.52    -110975.7   -349.23705    186898.15  0.057036816 
   58800     300.4935    -111818.3   -110980.81    66.896194    186747.38  0.057082866 
   58900    307.90033    -111843.9   -110985.77    301.76981    186563.67  0.057139073 
   59000    289.94104      -111800   -110991.91   -65.494469    186394.21  0.057191022 
   59100    305.86601   -111848.63   -110996.16    213.89393    186201.31   0.05725027 
   59200    298.85998   -111833.72   -111000.78   -85.760902    185997.66  0.057312955 
   59300    303.03539   -111850.91   -111006.33   -72.885325    185816.39  0.057368864 
   59400    302.46448   -111855.98      -111013    515.50345    185679.88  0.057411041 
   59500    297.24677   -111847.29   -111018.85   -50.648959    185558.18  0.057448695 
   59600    299.09384   -111859.69    -111026.1   -504.13217    185465.35   0.05747745 
   59700    292.26615   -111847.26    -111032.7    103.75901    185371.74  0.057506475 
   59800    296.15576   -111863.44   -111038.03   -318.86552    185273.44  0.057536985 
   59900    288.20463   -111844.87   -111041.63   -640.21346    185161.32  0.057571826 
   60000    286.53626   -111841.54   -111042.95    494.17726    185061.83  0.057602778 
   60100     296.8169   -111867.92   -111040.68   -30.360137     185004.5  0.057620629 
   60200    293.94717    -111852.8   -111033.55    573.25853    184964.92  0.057632957 
   60300    298.89029   -111852.08   -111019.06   -579.56334    184954.16   0.05763631 
   60400    308.17337   -111858.99   -111000.09     159.5377    184943.26  0.057639707 
   60500    296.88544   -111810.94   -110983.51     173.4034    184947.89  0.057638265 
   60600      296.262    -111795.3    -110969.6    14.978281    184931.52  0.057643368 
   60700    301.45369   -111800.71   -110960.54   -48.291944    184905.36  0.057651522 
   60800    308.16978    -111814.3   -110955.41    357.29364    184869.85  0.057662594 
   60900    303.85298    -111801.7   -110954.84    249.34909    184857.88  0.057666328 
   61000     308.8734   -111817.68   -110956.83    348.01641    184856.33  0.057666813 
   61100    308.40663   -111821.92   -110962.37   -398.56041    184823.99  0.057676905 
   61200    295.55737   -111792.98   -110969.25    438.46884    184747.12  0.057700901 
   61300     307.7908   -111834.51   -110976.68   -51.569306    184660.77  0.057727883 
   61400    313.97239   -111861.13   -110986.07   -287.26007    184576.69  0.057754181 
   61500    295.86842    -111821.9    -110997.3   -68.627396    184487.31  0.057782162 
   61600    296.45031   -111835.75   -111009.52   -194.29754    184398.34  0.057810039 
   61700    298.23714   -111850.48   -111019.28    258.27373    184327.65  0.057832211 
   61800    295.16596   -111848.82   -111026.17    186.90589     184308.2  0.057838313 
   61900     295.4133   -111852.64   -111029.31   -93.315587     184287.7  0.057844748 
   62000    305.27857   -111881.74   -111030.91   -131.34144    184255.44  0.057854874 
   62100    300.21654    -111867.4   -111030.68    287.61422    184195.45  0.057873716 
   62200      299.145   -111864.11   -111030.38   -45.024285    184108.42  0.057901074 
   62300    286.05985   -111824.33   -111027.06    380.58203    184025.25  0.057927243 
   62400     294.8692   -111842.82      -111021    181.53937    183960.14  0.057947747 
   62500    299.05403   -111849.08    -111015.6   -210.86093    183890.78  0.057969602 
   62600    301.60655   -111849.85   -111009.25   -18.911637    183829.82  0.057988825 
   62700    301.78858    -111846.2   -111005.09    28.409024       183771  0.058007386 
   62800     294.6161   -111824.33   -111003.21   -529.19165    183700.17  0.058029753 
   62900    293.83246   -111819.99   -111001.06    8.0084925    183609.26  0.058058485 
   63000    304.22338   -111846.05   -110998.16    876.31333    183512.52  0.058089089 
   63100    301.54347   -111835.95   -110995.53   -126.01968    183421.98  0.058117766 
   63200    295.67797   -111818.86   -110994.79    680.82395    183307.59  0.058154031 
   63300    302.85943   -111838.55   -110994.46     217.7406    183190.72  0.058191132 
   63400    302.91903   -111838.48   -110994.23   -494.12255    183069.04   0.05822981 
   63500    304.13016   -111843.29   -110995.66    146.36196    182956.96   0.05826548 
   63600    305.02217   -111847.51   -110997.39   -5.6077437    182871.48  0.058292717 
   63700    308.18048   -111859.29   -111000.38    168.01986    182783.87  0.058320656 
   63800    295.33879   -111830.39   -111007.26    323.08009    182729.98  0.058337858 
   63900    297.61117   -111850.03   -111020.57    78.802217    182690.29   0.05835053 
   64000     300.5153   -111875.81   -111038.26   -7.0897606     182665.5   0.05835845 
   64100    287.78504   -111858.39   -111056.32    113.31052    182618.42  0.058373494 
   64200    278.65829   -111846.88   -111070.24    508.31109    182585.37  0.058384062 
   64300    281.61624   -111861.46   -111076.58   -245.79747    182590.97  0.058382271 
   64400    294.25487   -111897.31   -111077.21   -209.12833    182598.32  0.058379919 
   64500    288.81855   -111880.02   -111075.07   -376.30534     182591.9  0.058381972 
   64600    295.86655   -111893.34   -111068.75    183.54936    182585.71  0.058383951 
   64700    298.19577   -111890.83   -111059.74    149.63781    182591.73  0.058382027 
   64800    297.31992   -111877.52   -111048.87     272.1934    182609.65  0.058376299 
   64900    289.91838   -111846.99   -111038.97   -21.193842    182630.87  0.058369515 
   65000     295.5399   -111853.45   -111029.76   -330.71947    182612.01  0.058375545 
   65100    296.61935   -111849.63   -111022.94    35.366687    182570.74   0.05838874 
   65200    299.89599   -111853.42   -111017.59    156.11468    182564.57  0.058390712 
   65300    292.89427   -111828.94   -111012.63   -153.71061    182564.65  0.058390686 
   65400    301.56848   -111848.26   -111007.77    122.71906     182546.8  0.058396397 
   65500    297.97387   -111834.84   -111004.36   -74.509397     182529.7  0.058401867 
   65600    296.99763      -111829   -111001.25    110.59006    182518.34  0.058405501 
   65700    303.49109   -111843.36   -110997.51   -606.92966    182497.24  0.058412256 
   65800    294.17014   -111812.72   -110992.85   -237.43027    182433.32  0.058432722 
   65900    305.67922   -111839.38   -110987.43    158.50777    182373.29  0.058451954 
   66000    306.58481   -111839.86   -110985.39   -63.930978    182345.27  0.058460937 
   66100    298.59524   -111817.07   -110984.87   -8.1034781    182337.07  0.058463567 
   66200    321.07579    -111881.1   -110986.24    318.49835    182332.86  0.058464915 
   66300    293.47612   -111807.27   -110989.33   -162.71423    182328.06  0.058466454 
   66400    301.59431      -111834   -110993.44   -135.16502    182322.27  0.058468313 
   66500    298.06229   -111832.06   -111001.34    149.41782    182345.94  0.058460723 
   66600    299.50452   -111847.19   -111012.45      169.315    182377.61  0.058450571 
   66700    298.30765   -111860.95   -111029.55    236.83835    182392.82  0.058445698 
   66800    294.94969   -111869.31   -111047.27   -450.32112    182410.23  0.058440116 
   66900    292.60154   -111875.35   -111059.85    30.383614    182435.45  0.058432038 
   67000    298.51631    -111901.7   -111069.72   -76.979926    182456.31  0.058425359 
   67100    289.71514   -111882.02   -111074.57    203.66532    182455.61  0.058425583 
   67200    284.86697   -111869.83   -111075.88    2.6540728    182452.82  0.058426475 
   67300    292.12499    -111887.2   -111073.03    165.66362    182463.71  0.058422989 
   67400    277.88698   -111841.42   -111066.93   -108.19304    182491.85   0.05841398 
   67500     294.8316   -111881.62   -111059.91   -25.485846     182508.1  0.058408781 
   67600    301.29653   -111888.87   -111049.14    184.85552    182514.34  0.058406782 
   67700    295.07954   -111860.04   -111037.64    -38.47649    182511.86  0.058407576 
   67800    282.50367    -111812.1   -111024.75    530.25077    182505.88  0.058409491 
   67900    298.64966   -111845.97   -111013.62     278.4374    182496.66  0.058412441 
   68000    304.67602   -111854.73   -111005.59    636.73971    182508.29  0.058408718 
   68100    301.31468   -111840.44   -111000.66   -237.85583    182550.76  0.058395129 
   68200    300.37916   -111835.58   -110998.41    324.17993     182554.3  0.058393998 
   68300    298.95925   -111829.56   -110996.35   -637.66567    182501.09  0.058411022 
   68400    300.44774   -111832.48   -110995.12   -53.039219    182409.17  0.058440458 
   68500     306.4537   -111849.35   -110995.25   -172.70314    182338.22  0.058463196 
   68600    303.92316   -111842.13   -110995.08   -53.910988    182241.48  0.058494233 
   68700    302.09403   -111836.59   -110994.63   -56.114954     182147.6   0.05852438 
   68800    298.62411      -111826   -110993.72    7.0407167    182036.74   0.05856002 
   68900    303.17704   -111839.87    -110994.9    399.08184    181937.03  0.058592116 
   69000    299.91311   -111832.46   -110996.59    239.16511    181826.79  0.058627639 
   69100    290.79113   -111811.77   -111001.31     120.4001    181721.85  0.058661495 
   69200    300.82568   -111845.41   -111006.99    311.03941    181651.92  0.058684076 
   69300    300.04914   -111853.22   -111016.97     115.3625    181609.43  0.058697807 
   69400     297.2188   -111857.77   -111029.41   -443.68927    181566.03  0.058711838 
   69500     294.8099   -111864.96   -111043.31   -326.66393    181487.67  0.058737189 
   69600    287.08062   -111854.85   -111054.74    208.40218    181382.02  0.058771402 
   69700    290.94938   -111872.49   -111061.59    30.630309    181266.39  0.058808891 
   69800    283.00658   -111853.06    -111064.3    51.797949    181141.64  0.058849391 
   69900    285.83016   -111859.75   -111063.12   -11.821832    181006.33  0.058893383 
   70000    294.82602   -111879.22   -111057.52   -334.13237    180900.32  0.058927896 
   70100    287.18844    -111847.8   -111047.39    266.49054    180814.71  0.058955799 
   70200    291.83977   -111848.62   -111035.25   -111.33852    180775.62  0.058968547 
   70300    296.64132   -111847.96   -111021.21   -105.02302     180757.7   0.05897439 
   70400    293.78453   -111827.84   -111009.05   -142.34307    180761.64  0.058973106 
   70500    298.07331   -111829.73   -110998.98   -482.29727    180760.22  0.058973569 
   70600    307.08941   -111848.67   -110992.79    283.89315    180753.88  0.058975638 
   70700    300.73616   -111827.24   -110989.07    90.545663    180770.89   0.05897009 
   70800    295.76439    -111811.7   -110987.39   -370.24162    180803.96  0.058959304 
   70900      291.656   -111799.91   -110987.05    113.90641    180805.25  0.058958882 
   71000    301.06554   -111826.52   -110987.43    269.44992    180792.93  0.058962899 
   71100     300.5325   -111826.33   -110988.73     150.1502    180810.84   0.05895706 
   71200    307.30879   -111846.94   -110990.45     -310.112    180857.11  0.058941975 
   71300    300.86516   -111831.55   -110993.02   -122.35103    180917.46  0.058922312 
   71400    307.94305   -111854.14   -110995.88    364.89542     180972.6  0.058904362 
   71500    302.58373   -111843.59   -111000.27   -361.64285    181005.72  0.058893583 
   71600    297.08165   -111832.42   -111004.44   -135.63994    180994.01  0.058897393 
   71700    301.98958   -111851.18   -111009.52     125.6502    180951.68  0.058911172 
   71800    296.95676   -111842.98   -111015.34    -110.7481    180890.14  0.058931214 
   71900    304.55756   -111872.72    -111023.9    256.79436    180806.46  0.058958487 
   72000    298.21101   -111866.83    -111035.7   -95.039942    180724.81  0.058985125 
   72100    285.60171   -111843.42   -111047.43     690.2223    180648.23  0.059010129 
   72200    293.30824   -111877.04   -111059.57   -148.86876    180572.29  0.059034947 
   72300    292.79381   -111885.61   -111069.57    345.19087    180484.86  0.059063544 
   72400    289.73821   -111883.33   -111075.81   -220.69665    180421.91  0.059084152 
   72500    285.28727   -111873.91   -111078.79   -629.44377    180392.43  0.059093805 
   72600    290.30583   -111887.53   -111078.44    309.92248    180322.61  0.059116687 
   72700     295.6729   -111897.37   -111073.31   -99.697994    180230.24  0.059146984 
   72800    296.41215   -111888.09   -111061.97    444.82326    180141.29   0.05917619 
   72900    287.12639   -111844.49   -111044.25   -329.50312    180063.51  0.059201753 
   73000    299.17813   -111856.25   -111022.42    70.002977    179955.81  0.059237184 
   73100    287.54295   -111806.91   -111005.52    13.372361    179841.26  0.059274915 
   73200    298.68597   -111827.15   -110994.69   -212.71533    179746.14  0.059306284 
   73300    299.98394   -111825.77   -110989.69     293.0861    179652.97  0.059337041 
   73400    307.12125   -111839.71   -110983.75   -513.29753    179556.69  0.059368856 
   73500    313.81183   -111854.78   -110980.16   -90.255935    179469.17  0.059397808 
   73600    301.45648   -111819.12   -110978.94    30.403858    179373.85  0.059429371 
   73700    308.86852   -111838.46   -110977.62    120.33026    179284.43  0.059459015 
   73800     297.9142   -111809.35   -110979.04   -7.3085876    179195.42  0.059488548 
   73900     304.7346    -111832.5   -110983.19   -512.15563    179115.22  0.059515185 
   74000    294.38768   -111810.31   -110989.83   -375.37198    179013.21  0.059549099 
   74100     298.9204    -111830.7   -110997.59   -87.324491    178917.03   0.05958111 
   74200      287.672   -111809.44   -111007.68   -19.235817    178822.68  0.059612548 
   74300    293.37493   -111834.57   -111016.92   -49.637484    178706.47  0.059651311 
   74400    299.88342   -111860.84   -111025.05      520.175     178587.5  0.059691051 
   74500    301.71312   -111874.17   -111033.28   -116.65533    178495.97  0.059721659 
   74600    310.42499   -111905.32   -111040.15   -163.84807    178434.91  0.059742095 
   74700    292.00634   -111859.58   -111045.74   -214.59722    178371.19  0.059763435 
   74800    291.83579   -111863.39   -111050.02    187.51139    178279.19  0.059794276 
   74900    291.12828   -111862.88   -111051.49    408.08987    178177.96  0.059828248 
   75000    287.61541   -111852.57   -111050.97   -431.23703    178133.78  0.059843087 
   75100    307.35822   -111900.47   -111043.84    -20.69811    178097.65  0.059855226 
   75200    287.34766   -111829.66    -111028.8    33.859184    178090.59  0.059857599 
   75300    296.51991   -111832.03   -111005.61    69.476822    178070.46  0.059864368 
   75400     310.9319   -111852.18   -110985.59   -334.76777    178049.28  0.059871488 
   75500    302.58253   -111817.58   -110974.26    -67.51171    178026.37  0.059879192 
   75600    311.74381   -111835.48   -110966.63   -215.52701    177995.96  0.059889424 
   75700    306.46492   -111816.96   -110962.82    61.577496    177959.29  0.059901764 
   75800    315.75072   -111841.46   -110961.44   -423.65555    177920.55  0.059914808 
   75900    308.15471   -111821.85   -110963.01   -376.78012    177854.58  0.059937032 
   76000    293.82223   -111786.18   -110967.29    676.48789    177763.19  0.059967846 
   76100    302.89163   -111819.04   -110974.86   -147.23966    177665.43  0.060000841 
   76200    301.49818   -111824.38   -110984.09    464.18897    177533.96  0.060045274 
   76300    300.60086   -111831.84   -110994.04    144.99907    177421.17  0.060083445 
   76400    299.02128   -111836.79    -111003.4   -315.13328    177320.17  0.060117671 
   76500    290.14604   -111822.29   -111013.64    151.42208    177249.11   0.06014177 
   76600    300.43084    -111859.2   -111021.89   -103.28598    177216.34   0.06015289 
   76700    296.44418   -111856.91   -111030.71   -466.83241    177190.36  0.060161713 
   76800    291.59502   -111849.16   -111036.47   -313.18268    177135.37  0.060180388 
   76900    295.26251   -111863.77   -111040.86   -32.355404    177072.14  0.060201876 
   77000     283.5203   -111832.28   -111042.09   -190.57227    177003.59  0.060225192 
   77100    292.22136   -111856.06   -111041.62   -211.23498    176946.67  0.060244568 
   77200    295.52577   -111862.77   -111039.13    317.27874    176888.84  0.060264263 
   77300    286.74994   -111831.27   -111032.08   -564.97643    176828.27  0.060284904 
   77400    294.74434   -111844.16   -111022.69   -369.82211    176766.79  0.060305871 
   77500    287.33684   -111808.35   -111007.53   -635.38575    176715.29  0.060323447 
   77600    307.38431   -111845.11   -110988.41   -124.84869    176685.26  0.060333701 
   77700      300.687    -111807.5   -110969.47   -410.71948    176655.52  0.060343857 
   77800    311.25491   -111823.27   -110955.79    491.20997    176610.27  0.060359316 
   77900    306.05335    -111805.4   -110952.41   -150.93954    176568.45  0.060373612 
   78000     313.2239   -111826.16   -110953.18    81.606765    176526.87  0.060387834 
   78100    309.32965   -111818.37   -110956.25   -10.127141    176469.83  0.060407353 
   78200    300.56564   -111798.16   -110960.47    333.95834    176396.72  0.060432389 
   78300    296.14267   -111790.18   -110964.81   -500.25526    176308.53  0.060462618 
   78400    304.19427    -111819.8   -110971.99   -387.16841    176210.41  0.060496287 
   78500    296.00441   -111804.34   -110979.36   -327.35473    176095.03  0.060535923 
   78600    302.23445   -111829.95    -110987.6    114.31876    175978.79  0.060575911 
   78700    296.21269   -111819.53   -110993.97    216.81739     175870.2  0.060613312 
   78800    315.36443   -111880.17   -111001.23    2.7281874    175791.48  0.060640455 
   78900    307.06476   -111866.02   -111010.21    497.04562    175717.29  0.060666059 
   79000    297.32385   -111847.27   -111018.61    81.626678    175625.53  0.060697756 
   79100     298.4663   -111857.81   -111025.97    175.06633    175518.26  0.060734851 
   79200    289.23138   -111837.52   -111031.42    242.67563    175403.62  0.060774546 
   79300    292.00508   -111850.82   -111036.99    177.15675    175278.94  0.060817777 
   79400    287.87891   -111841.21   -111038.87   -331.46022    175172.55  0.060854715 
   79500    298.84733      -111873    -111040.1   -240.93525    175101.56  0.060879385 
   79600    304.30695   -111886.48   -111038.36    275.27887    175034.92  0.060902562 
   79700    309.12556   -111894.77   -111033.22   -83.798077    174947.43  0.060933021 
   79800    304.21336   -111872.64   -111024.78   -452.34411    174827.69  0.060974753 
   79900    297.22423   -111840.01   -111011.63    187.29721     174689.5  0.061022989 
   80000    307.68881   -111853.16   -110995.62    65.992398    174564.02  0.061066854 
   80100    302.33894   -111822.32   -110979.69   -235.94191    174461.05  0.061102895 
   80200    309.11706   -111828.81   -110967.28     97.72999    174378.99  0.061131649 
   80300    313.74694   -111834.31   -110959.88   -44.187567    174311.11  0.061155455 
   80400    320.32866   -111848.88    -110956.1    137.45259    174242.27  0.061179617 
   80500    308.99243   -111818.22   -110957.04   -430.42505    174165.08  0.061206732 
   80600    300.27714    -111795.1   -110958.21    301.07659     174080.7  0.061236402 
   80700    310.57518   -111828.36   -110962.77    75.502856    173997.26  0.061265767 
   80800    299.69127      -111805   -110969.74    56.344323    173920.69  0.061292739 
   80900    305.73583   -111830.22   -110978.11   -206.53609    173848.15  0.061318314 
   81000    301.11314    -111830.2   -110990.98    221.99808    173753.96  0.061351553 
   81100    298.86615   -111838.63   -111005.67    304.53557    173656.57  0.061385962 
   81200    297.09338    -111846.8   -111018.78    -61.07483     173531.8  0.061430097 
   81300    303.28851   -111873.76   -111028.48   -87.734685    173380.94  0.061483547 
   81400     306.3905   -111887.08   -111033.16   -195.99486    173203.08  0.061546684 
   81500    293.34318   -111852.62   -111035.05     185.3983    173001.18  0.061618511 
   81600    297.64919   -111863.93   -111034.36   -1.9221188    172819.86  0.061683163 
   81700    307.48128   -111890.12   -111033.15   -202.10392     172661.9  0.061739591 
   81800     301.5098   -111873.25   -111032.93    17.425158    172497.95  0.061798273 
   81900    294.46713   -111853.05   -111032.36   -143.39821    172325.23  0.061860211 
   82000    295.83886   -111855.26   -111030.74    1.9020771    172157.01   0.06192066 
   82100    299.52068   -111863.04   -111028.26   -183.01648     171999.9  0.061977218 
   82200    288.29945   -111827.42   -111023.91   -649.83859    171851.84  0.062030616 
   82300     295.2871   -111841.94   -111018.96    274.66149    171710.93  0.062081518 
   82400    292.24253   -111826.04   -111011.55    146.93521    171583.28  0.062127705 
   82500     308.2432    -111862.6   -111003.51    39.260584    171461.71  0.062171754 
   82600    298.36852   -111824.85   -110993.28    24.331032    171365.31  0.062206728 
   82700    303.16085   -111829.32    -110984.4    200.87243    171268.22  0.062241995 
   82800    308.91664    -111835.7   -110974.73    -0.946696    171177.25   0.06227507 
   82900    298.83202   -111795.64   -110962.78   -378.07755    171070.43  0.062313955 
   83000    312.87959   -111823.23   -110951.21    147.95725    170949.33  0.062358101 
   83100    314.57017   -111817.07   -110940.34      444.913     170830.5  0.062401477 
   83200     309.8018    -111793.4   -110929.96   -87.804492    170725.07  0.062440011 
   83300    313.24044   -111793.26   -110920.24    159.28133    170612.25  0.062481302 
   83400    315.59274   -111790.88    -110911.3   -319.22675    170507.35  0.062519741 
   83500    317.67156   -111789.42   -110904.06   -213.10357    170409.86   0.06255551 
   83600    307.41933   -111757.37   -110900.58   -86.285102    170314.06  0.062590696 
   83700    312.50761   -111773.04   -110902.06    83.543856    170208.14  0.062629643 
   83800    313.44757   -111785.15   -110911.56   -402.17941    170104.14  0.062667937 
   83900    300.72123   -111770.17   -110932.05   -342.29878    170005.66  0.062704237 
   84000    305.84521   -111806.16   -110953.75   -88.010775    169872.28  0.062753472 
   84100    312.15588   -111841.45   -110971.45   -123.57844    169735.54  0.062804027 
   84200    303.21254   -111830.01   -110984.93    586.33897    169613.33  0.062849279 
   84300    303.32213   -111841.27   -110995.89    431.43011     169489.9  0.062895049 
   84400    301.75711    -111844.5   -111003.49    417.53342     169338.1  0.062951429 
   84500    301.70144   -111851.12   -111010.26   -269.16672    169190.59  0.063006312 
   84600    297.76262   -111846.41   -111016.52    -55.79172    169059.37  0.063055216 
   84700    293.00507   -111839.38   -111022.76     232.2225    168930.28  0.063103403 
   84800    293.42973   -111843.05   -111025.24   -146.09543    168793.37  0.063154586 
   84900    302.00031   -111869.74   -111028.05   -5.9441525     168614.1  0.063221731 
   85000    299.10398   -111863.04   -111029.42    208.50224    168413.22  0.063297143 
   85100    292.02464   -111843.23   -111029.34    38.037466    168203.12  0.063376203 
   85200    285.07078   -111822.62   -111028.11    173.33725    167996.52  0.063454143 
   85300    293.72855   -111842.32   -111023.68   -308.03893     167777.4  0.063537014 
   85400    297.34309   -111847.43   -111018.72    97.618197    167565.55  0.063617347 
   85500    297.32422   -111839.17   -111010.51    879.26708       167380  0.063687868 
   85600    309.10041   -111861.03   -110999.55   -17.847463    167241.48  0.063740617 
   85700    312.84355    -111860.5   -110988.59   -53.146689    167119.58  0.063787111 
   85800     313.2729   -111850.88   -110977.77   -115.28702    166999.91  0.063832822 
   85900    313.09869   -111842.58   -110969.96   -302.82673    166882.21  0.063877843 
   86000    306.75867   -111819.71   -110964.76    78.081265    166749.21   0.06392879 
   86100    305.13478    -111814.7   -110964.28    102.38866    166638.36  0.063971318 
   86200    313.21122   -111840.98   -110968.04    356.35216    166523.73  0.064015352 
   86300    303.23417   -111819.39   -110974.26   -178.78994    166398.85  0.064063396 
   86400    294.18585   -111805.89   -110985.98    639.04159    166254.35  0.064119078 
   86500    302.23696   -111844.16   -111001.81    -216.2757    166139.23  0.064163506 
   86600    307.11334    -111877.7   -111021.76    82.034678    166054.16  0.064196377 
   86700     308.3824   -111896.45   -111036.97   -137.04292    165981.03  0.064224661 
   86800    283.14268   -111834.58   -111045.44    -42.17466    165921.02  0.064247888 
   86900    288.01612   -111849.72      -111047   -331.42027     165862.9  0.064270402 
   87000    296.94226   -111872.54   -111044.94    97.634857    165811.37  0.064290375 
   87100    287.64087   -111842.51   -111040.84     263.8097    165779.25  0.064302831 
   87200    297.12317   -111865.05   -111036.96    86.449978     165758.4  0.064310921 
   87300    293.88135   -111852.12   -111033.05    202.72374    165714.28  0.064328043 
   87400     299.4218   -111861.34   -111026.83    355.86233    165654.94  0.064351087 
   87500     303.1212   -111865.34   -111020.53     277.2968    165582.75  0.064379143 
   87600    297.21534   -111841.85    -111013.5   -51.165838    165466.48  0.064424382 
   87700    309.89034   -111868.82   -111005.14    52.602907    165338.93  0.064474082 
   87800    310.00433   -111862.25   -110998.25   -441.73559    165219.85  0.064520548 
   87900    309.10127   -111855.05   -110993.57    370.81073    165120.91  0.064559211 
   88000    299.02161   -111822.13   -110988.74    359.99148    165021.63  0.064598049 
   88100    295.52888   -111810.51   -110986.86   -353.19379    164922.15  0.064637016 
   88200    290.52019   -111793.97   -110984.27   -25.146735    164816.81  0.064678327 
   88300    297.55615   -111812.23   -110982.92    232.35394    164718.66  0.064716864 
   88400    311.53195   -111848.81   -110980.55    176.60736    164624.87  0.064753735 
   88500     310.6783   -111841.73   -110975.85   -116.77632       164541  0.064786743 
   88600    297.20178   -111799.62    -110971.3   -93.089158    164452.78  0.064821497 
[...]
  978700    301.65513    -111858.4   -111017.67   -428.44095    13922.037   0.76569794 
  978800    303.34909   -111873.48   -111028.03    8268.9889    13920.698   0.76577159 
  978900     306.1973      -111894   -111040.61    953.36713    13920.717   0.76577058 
  979000    313.55196   -111926.43   -111052.54   -5878.9802    13921.434   0.76573111 
  979100    303.44458   -111910.43   -111064.72   -382.03445    13920.525   0.76578111 
  979200    296.73271   -111901.92   -111074.91   -2412.5251    13916.539   0.76600048 
  979300    290.23452   -111893.45   -111084.55    10073.068    13911.929   0.76625428 
  979400    289.69843   -111897.18   -111089.78   -2411.3364    13908.794   0.76642702 
  979500     306.3302   -111947.07   -111093.31    1010.7326    13905.443   0.76661172 
  979600    291.90567   -111906.95   -111093.39    4340.9421    13904.129   0.76668416 
  979700     299.1704   -111925.57   -111091.76   -1220.4127    13905.718   0.76659654 
  979800    304.66868   -111938.69   -111089.56   -9105.3087    13909.336   0.76639712 
  979900    305.30902    -111938.2   -111087.29    1265.6453    13912.587   0.76621803 
  980000    295.16415   -111906.57   -111083.93    -3591.708    13915.981   0.76603118 
  980100    298.70731   -111912.05   -111079.54    4186.0626    13919.853   0.76581809 
  980200    286.27091   -111872.28   -111074.43   -2070.3556    13921.369   0.76573473 
  980300    303.85035   -111911.83   -111064.98   -4023.8881    13920.424   0.76578667 
  980400    300.88029   -111891.15   -111052.58     6122.777    13918.258   0.76590586 
  980500    303.85302   -111883.86      -111037   -2106.4707    13915.105   0.76607941 
  980600    309.93753   -111885.34   -111021.52    1673.2154     13910.47   0.76633469 
  980700    312.39541   -111877.64   -111006.98   -1003.1298    13906.448   0.76655631 
  980800    315.06307   -111874.94   -110996.84   -2916.0599    13901.891   0.76680755 
  980900    311.52486    -111863.2   -110994.96    -5513.846    13895.262    0.7671734 
  981000    327.71409   -111909.03   -110995.67    571.44786    13885.883   0.76769155 
  981100    325.52983   -111908.93   -111001.66     3280.324    13875.235   0.76828068 
  981200    312.83698   -111881.08   -111009.18    4965.8145    13864.587   0.76887074 
  981300    305.52519   -111868.53   -111017.01   -3509.8228    13854.996   0.76940298 
  981400    306.65041   -111879.47   -111024.82   -3161.8515    13845.227   0.76994586 
  981500    318.33664   -111918.59   -111031.37    10724.119    13835.578   0.77048283 
  981600    306.00047   -111891.54    -111038.7   -3902.6009    13825.437   0.77104801 
  981700    305.86892   -111898.99   -111046.52   -1816.7965    13815.652   0.77159407 
  981800    300.85736   -111894.44   -111055.94    2934.9162    13804.836   0.77219863 
  981900    300.59657   -111900.04   -111062.26   -6564.6001    13792.394   0.77289524 
  982000    305.36187   -111920.67   -111069.61   -3747.8265    13779.131   0.77363917 
  982100    308.01264   -111936.75    -111078.3    1187.9028    13766.866   0.77432839 
  982200     294.8349   -111908.53    -111086.8   -962.45784    13756.195   0.77492906 
  982300    290.98059   -111904.94   -111093.96    6653.2392    13746.191   0.77549302 
  982400    294.29642   -111918.65   -111098.43    3873.0395    13738.026   0.77595394 
  982500    293.20725   -111918.29   -111101.11    1004.2094    13728.712   0.77648035 
  982600     298.5745   -111934.02   -111101.88   -955.30182    13719.919   0.77697799 
  982700    294.42446   -111920.09   -111099.52   -235.07416    13713.196   0.77735892 
  982800    288.28608   -111898.06   -111094.59   -6173.9498    13706.874   0.77771749 
  982900    294.59567   -111907.24   -111086.19   -1764.6649    13700.158   0.77809869 
  983000    300.06408   -111909.66   -111073.36    4179.3495    13693.099   0.77849983 
  983100    312.18671   -111928.22   -111058.14   -2733.1621    13688.626   0.77875421 
  983200    309.49465   -111908.17   -111045.59   -2708.6212    13684.994   0.77896088 
  983300    294.53435   -111855.86   -111034.98   -1735.1501    13679.622   0.77926683 
  983400    302.22629   -111868.85   -111026.53   -807.47653    13674.161   0.77957802 
  983500    312.84057   -111893.41   -111021.51    -3867.988    13668.176   0.77991936 
  983600    313.99201   -111895.53   -111020.41    1014.7083    13661.668   0.78029091 
  983700    320.15499   -111915.47   -111023.18   -869.81256    13655.117   0.78066525 
  983800    309.10069   -111894.09   -111032.61   -3086.7361    13649.498   0.78098664 
  983900    318.70721   -111935.39   -111047.14    4748.1469    13647.117   0.78112291 
  984000    310.47469   -111931.96   -111066.65    679.29792    13646.963   0.78113169 
  984100    297.40269   -111914.31   -111085.43   -1702.8024    13647.068   0.78112568 
  984200    301.32122   -111934.75   -111094.95   -4419.1627    13647.402   0.78110654 
  984300    297.38295   -111927.83      -111099    597.69485    13646.751   0.78114382 
  984400    294.10183   -111921.44   -111101.76     5518.644    13645.451   0.78121823 
  984500      293.319   -111919.82   -111102.32    942.05114    13644.586   0.78126779 
  984600     295.6626   -111925.72    -111101.7    2048.5244    13642.441   0.78139059 
  984700    300.05948   -111934.58    -111098.3    694.09543    13640.777   0.78148594 
  984800    295.75849   -111918.19   -111093.89    6753.4289    13641.366   0.78145219 
  984900    296.54945   -111915.52   -111089.02   -1791.0845    13642.525   0.78138581 
  985000    306.66473    -111938.1   -111083.41   -3945.5961    13642.836   0.78136801 
  985100    311.48627   -111945.63    -111077.5   -8750.5607    13640.608   0.78149563 
  985200     312.9785   -111946.02   -111073.73   -2456.8978    13636.604    0.7817251 
  985300    301.31644   -111909.31   -111069.53    6808.3023    13633.248   0.78191751 
  985400     301.7083   -111905.85   -111064.97    2841.6832      13632.3    0.7819719 
  985500     293.2698   -111879.74   -111062.38   -4284.9304    13633.556   0.78189986 
  985600    301.98103   -111901.21   -111059.57   -6742.8401    13635.493   0.78178877 
  985700    303.38495   -111902.78   -111057.23   -1206.4707    13637.385   0.78168033 
  985800    297.04129   -111883.69   -111055.82    5302.5159     13639.16   0.78157856 
  985900     300.4719   -111892.64   -111055.21   -308.19468    13640.274   0.78151473 
  986000    316.38075   -111937.07    -111055.3   -499.59193    13640.475   0.78150326 
  986100    311.90829   -111924.48   -111055.17    6645.4154    13641.775   0.78142875 
  986200    292.89445   -111873.89   -111057.58   -3797.7021    13645.261    0.7812291 
  986300    306.66238   -111916.78    -111062.1    5258.6977    13648.634   0.78103606 
  986400    297.09883   -111897.09   -111069.06     1340.209    13652.015   0.78084263 
  986500    297.13963   -111907.19   -111079.05     1509.246    13655.061   0.78066844 
  986600    290.97347   -111899.81   -111088.85   -2412.1789    13657.986   0.78050128 
  986700     305.9237   -111952.59   -111099.97   -2066.5473    13660.778   0.78034177 
  986800    291.04661   -111921.21   -111110.05    1908.0104    13663.695   0.78017517 
  986900    293.57398   -111935.41    -111117.2    2179.1082    13666.126   0.78003636 
  987000    296.93654   -111948.49   -111120.91    1438.2906    13665.708   0.78006024 
  987100    291.38973   -111934.89   -111122.77    1526.9828     13662.61   0.78023714 
  987200    291.46514   -111936.01   -111123.68   -2562.7112    13658.639   0.78046398 
  987300    296.44714    -111949.4   -111123.19   -2050.5652    13654.021   0.78072794 
  987400    292.42962   -111934.39   -111119.38   -5414.4128    13648.073   0.78106819 
  987500    296.97188    -111937.6   -111109.92    598.13532    13641.686   0.78143384 
  987600    309.62148   -111958.66   -111095.73    2985.5153    13635.356   0.78179661 
  987700    297.52172   -111906.43   -111077.22   -4214.2691    13629.215   0.78214887 
  987800    301.38246   -111900.35   -111060.38    3720.6072    13620.958   0.78262305 
  987900    307.84803      -111907   -111049.01    6988.6407    13612.113   0.78313156 
  988000     309.9427   -111906.45   -111042.62    597.08494    13603.356   0.78363572 
  988100    305.20114   -111891.02   -111040.41   -5999.8997    13594.137   0.78416714 
  988200    294.75902    -111861.7   -111040.19    4152.4088    13583.945   0.78475546 
  988300    314.26342   -111916.61   -111040.74   -3055.8387    13573.664   0.78534987 
  988400     313.5227   -111916.66   -111042.86    53.336987    13564.481   0.78588156 
  988500    305.26955   -111898.63   -111047.82    3755.7072    13556.003   0.78637303 
  988600    292.00049   -111868.77   -111054.94   -2499.1043    13547.827   0.78684763 
  988700    305.38049   -111913.22   -111062.11    2600.9576    13539.265   0.78734518 
  988800    294.47442   -111889.55   -111068.83   -6965.6961    13532.109   0.78776156 
  988900    310.52422   -111942.09   -111076.65    787.07145    13524.816   0.78818638 
  989000    297.33344   -111912.81   -111084.12    3686.3508    13518.106   0.78857756 
  989100    294.69519   -111910.12   -111088.79   -2022.2378    13511.994   0.78893426 
  989200    296.13818   -111919.45   -111094.09    1873.3087    13506.392   0.78926149 
  989300    297.82642   -111928.35   -111098.29   -5308.9035    13499.062   0.78969009 
  989400    300.58612   -111938.34   -111100.59   -4602.2264    13488.364    0.7903164 
  989500    296.73292   -111929.01      -111102   -2260.8989    13477.789   0.79093649 
  989600    288.79502   -111907.48   -111102.59    5373.5176    13467.237   0.79155624 
  989700    298.93691   -111935.39   -111102.23   -607.89618    13457.566   0.79212506 
  989800    303.03327      -111944   -111099.43    1911.9793     13447.41   0.79272333 
  989900    294.31415   -111912.83   -111092.56    557.58561    13437.252   0.79332258 
  990000    303.79701   -111927.84   -111081.14    6224.1147    13426.598   0.79395207 
  990100    306.45428   -111921.88   -111067.77    207.22494    13417.865   0.79446883 
  990200    314.14252   -111931.01   -111055.47     6274.845    13409.354    0.7949731 
  990300    306.95701   -111900.62   -111045.11   -3492.7975    13402.122   0.79540204 
  990400    307.38685   -111893.91   -111037.21   -1582.8465    13398.085   0.79564172 
  990500    292.37619   -111846.64   -111031.77   -307.61935    13397.878   0.79565399 
  990600    305.48006   -111879.03   -111027.64    1821.7347    13399.603    0.7955516 
  990700    314.28928   -111902.89   -111026.95   -2281.5224    13402.784   0.79536279 
  990800    317.70895   -111915.42   -111029.94    1104.9307    13406.738   0.79512818 
  990900    304.40956   -111885.09   -111036.68   -3906.3654     13410.75   0.79489031 
  991000     312.3484   -111916.97   -111046.44   -1703.0091    13416.508   0.79454919 
  991100    306.47071   -111914.95    -111060.8    3141.0152    13421.876   0.79423139 
  991200    304.19645   -111921.37   -111073.55    1575.1334    13426.736   0.79394389 
  991300    308.16262   -111945.87      -111087   -1508.2452     13432.15   0.79362389 
  991400    292.11016   -111911.16   -111097.03   -1169.2673    13438.027   0.79327684 
  991500    289.24229   -111909.11   -111102.97   -5383.8361    13442.217   0.79302957 
  991600    293.21483   -111923.01   -111105.81    4050.9927    13443.246   0.79296888 
  991700    294.95986   -111929.24   -111107.17   -1631.6355     13444.16   0.79291493 
  991800    282.86127   -111895.12   -111106.77   -4902.2959    13444.485   0.79289579 
  991900    306.78229   -111960.09   -111105.07   -6766.9277    13444.485   0.79289575 
  992000    291.00444   -111912.77   -111101.72     425.6487    13442.418    0.7930177 
  992100    288.69989   -111900.27   -111095.64    2160.3643    13436.968   0.79333937 
  992200     294.0157   -111905.48   -111086.04    1932.7602    13428.341   0.79384901 
  992300    295.29577   -111897.88   -111074.87   -1785.2347     13420.79   0.79429568 
  992400    295.50559   -111886.89    -111063.3    -7615.571    13414.269   0.79468182 
  992500    305.38321   -111903.33   -111052.21     3176.177    13408.103   0.79504724 
  992600    293.71698   -111862.13   -111043.53    939.61739    13397.655   0.79566725 
  992700    306.40078   -111891.11   -111037.16    7789.1975    13385.266   0.79640368 
  992800    307.44999   -111890.53   -111033.65   -3597.4313    13372.314   0.79717505 
  992900    303.62491   -111878.75   -111032.53    2539.0312    13356.406   0.79812454 
  993000    304.97291   -111883.48    -111033.5   -4183.8614    13340.462   0.79907841 
  993100     304.7659   -111886.19   -111036.79    29.250392    13322.785   0.80013868 
  993200    320.52468    -111933.6   -111040.28    1948.0395    13306.007   0.80114756 
  993300    300.78032   -111883.84   -111045.54   -797.82168    13292.018   0.80199073 
  993400     305.6187      -111903   -111051.22   -6617.3569    13278.436   0.80281107 
  993500    302.47339   -111901.32   -111058.31    3051.6825     13265.27   0.80360785 
  993600    319.34582   -111955.03   -111064.99   -796.65125    13253.719   0.80430824 
  993700    299.46854   -111908.62   -111073.98   -3471.1226    13244.144   0.80488971 
  993800    289.73716   -111889.64   -111082.13   -5860.9804    13235.785   0.80539806 
  993900    290.33334   -111899.09   -111089.91   -3657.8105    13225.487   0.80602518 
  994000    300.28088   -111933.46   -111096.56    7236.4874    13212.399   0.80682357 
  994100    303.12184   -111946.31   -111101.49   -1129.5745    13198.864   0.80765094 
  994200    306.48042   -111959.25   -111105.07    3628.7707    13185.611   0.80846277 
  994300    297.38437   -111936.35   -111107.53   -1697.4655    13174.423   0.80914932 
  994400    299.02713   -111941.33   -111107.92    873.90343    13166.305   0.80964819 
  994500    298.99409   -111939.93   -111106.62   -733.35768    13161.828   0.80992364 
  994600    301.59485    -111944.2   -111103.64   -4144.5326    13157.453   0.81019291 
  994700    295.41193   -111921.21   -111097.88    2152.8803    13152.722   0.81048436 
  994800    298.83047   -111919.41   -111086.55   -859.72702    13147.798    0.8107879 
  994900    297.54361    -111898.5   -111069.23    4992.4603    13144.155   0.81101263 
  995000    305.35138   -111898.22   -111047.19   -6380.4077    13141.727   0.81116244 
  995100    318.24317   -111916.93   -111029.97    5427.8531    13138.947    0.8113341 
  995200     321.8264   -111918.57   -111021.62   -1975.7114    13136.617   0.81147797 
  995300    306.82275   -111873.24   -111018.11    3352.8983    13132.801   0.81171378 
  995400    312.11256   -111890.86   -111020.98   -3828.6432    13130.945   0.81182848 
  995500    307.32861   -111881.76   -111025.22    1200.5903    13130.847   0.81183457 
  995600    301.57869   -111873.22    -111032.7    4567.8482    13133.548   0.81166761 
  995700    296.48889   -111866.98   -111040.65    1000.8515    13138.373   0.81136952 
  995800    296.77376   -111876.92   -111049.79   -2278.6658    13141.869   0.81115366 
  995900    305.54428   -111911.83   -111060.26   -343.39957    13144.523    0.8109899 
  996000    300.70474   -111908.62   -111070.54   -4034.1945    13146.335   0.81087814 
  996100    301.36077   -111919.18   -111079.27   -3650.0597    13148.993   0.81071418 
  996200    301.14085   -111925.55   -111086.25    1442.5269    13150.146   0.81064314 
  996300    306.14139   -111943.84   -111090.61   -3540.2454    13151.803   0.81054096 
  996400     285.9014   -111891.36   -111094.53    7493.2253    13155.369   0.81032126 
  996500    295.57255   -111921.07   -111097.29    6121.1945    13161.993   0.80991348 
  996600    301.23677   -111937.41   -111097.84    4623.9208    13168.799   0.80949486 
  996700    307.08124   -111954.27   -111098.42   -3193.7517    13174.269   0.80915879 
  996800     296.7335   -111925.61    -111098.6   -4549.5104    13177.609   0.80895372 
  996900    290.40921   -111907.92   -111098.54   -442.61359    13180.184   0.80879563 
  997000    304.89316   -111949.12   -111099.37   -2329.0931    13181.876   0.80869184 
  997100    290.31655   -111906.19   -111097.07   -10142.669    13184.999   0.80850027 
  997200    304.39264   -111941.01   -111092.65    6828.2871    13187.974   0.80831791 
  997300    302.41777   -111932.54   -111089.68    4896.4478    13190.413   0.80816843 
  997400    298.80912    -111919.1    -111086.3    3217.0558    13192.634   0.80803237 
  997500    290.25338   -111891.11   -111082.15   -2129.4111    13193.326   0.80798999 
  997600     306.4204    -111931.3   -111077.29    -992.3092    13194.344   0.80792764 
  997700    300.93482   -111911.15   -111072.43   -24.727872    13194.439   0.80792181 
  997800    304.13657   -111912.95   -111065.31   -4179.2966    13193.795   0.80796124 
  997900    317.62753   -111938.15    -111052.9    7499.2441    13193.404   0.80798524 
  998000    304.07526    -111882.6   -111035.12   -6619.3352    13195.508   0.80785641 
  998100    317.52758   -111901.94   -111016.97    2647.9593    13197.285   0.80774761 
  998200    317.88142   -111890.49   -111004.53   -1189.1075    13199.548   0.80760914 
  998300    307.73278   -111858.41   -111000.74   -4821.6153    13199.917   0.80758653 
  998400    303.95764   -111847.51   -111000.37     1264.129    13199.675   0.80760136 
  998500    322.94475   -111906.48   -111006.41    2967.8601    13202.575   0.80742396 
  998600    307.68834   -111874.94    -111017.4    32.625871    13206.487   0.80718477 
  998700     313.2286   -111904.36   -111031.37    2415.9018    13210.913   0.80691434 
  998800    302.24118   -111886.36      -111044   -3809.0312    13215.071   0.80666049 
  998900    309.44851    -111918.5   -111056.05   -4501.7986    13219.207   0.80640809 
  999000    301.66684    -111906.8   -111066.04   -94.101113     13224.71   0.80607253 
  999100    296.84799   -111900.54    -111073.2   -1335.7574    13231.096   0.80568346 
  999200    297.58715   -111909.69   -111080.29    1344.5101    13235.058   0.80544231 
  999300    288.20985   -111888.56   -111085.31   -1205.5168    13236.792   0.80533679 
  999400    295.14004   -111911.96   -111089.39    7608.3125     13239.09   0.80519699 
  999500    303.72041   -111938.35   -111091.86    2219.5872    13241.356   0.80505917 
  999600     300.4379   -111931.97   -111094.63    7675.9191    13242.331   0.80499989 
  999700    289.10806   -111901.54   -111095.78   -3638.7267    13243.114   0.80495235 
  999800    292.43541   -111911.34   -111096.31    2634.6594    13244.641   0.80485952 
  999900    296.26212   -111919.39   -111093.69    9929.2944    13247.781   0.80466875 
 1000000     297.6633   -111918.93   -111089.32    67.646009    13251.705   0.80443045 
Loop time of 93940 on 1 procs for 1000000 steps with 936 atoms

Performance: 0.230 ns/day, 104.378 hours/ns, 10.645 timesteps/s
99.9% CPU use with 1 MPI tasks x no OpenMP threads

MPI task timing breakdown:
Section |  min time  |  avg time  |  max time  |%varavg| %total
---------------------------------------------------------------
Pair    | 77411      | 77411      | 77411      |   0.0 | 82.40
Neigh   | 271.23     | 271.23     | 271.23     |   0.0 |  0.29
Comm    | 19.62      | 19.62      | 19.62      |   0.0 |  0.02
Output  | 1.9162     | 1.9162     | 1.9162     |   0.0 |  0.00
Modify  | 16235      | 16235      | 16235      |   0.0 | 17.28
Other   |            | 1.01       |            |       |  0.00

Nlocal:    936 ave 936 max 936 min
Histogram: 1 0 0 0 0 0 0 0 0 0
Nghost:    7080 ave 7080 max 7080 min
Histogram: 1 0 0 0 0 0 0 0 0 0
Neighs:    447256 ave 447256 max 447256 min
Histogram: 1 0 0 0 0 0 0 0 0 0

Total # of neighbors = 447256
Ave neighs/atom = 477.838
Neighbor list builds = 10000
Dangerous builds not checked

Please see the log.cite file for references relevant to this simulation

Total wall time: 26:05:40
