LAMMPS (09 Jan 2020)
package omp 0
WARNING: OpenMP support not enabled during compilation; using 1 thread only. (../fix_omp.cpp:125)
units			real
atom_style		charge
read_data input_files/d450000_lmps.dat
  orthogonal box = (-15 -15 -15) to (50 50 50)
  1 by 1 by 1 MPI processor grid
  reading atoms ...
  936 atoms
  read_data CPU = 0.000720024 secs
reset_timestep		0

pair_style              reax/c lmp_control lgvdw yes
pair_coeff              * * ffield C H O N

neighbor		2.5 bin
neigh_modify		delay 0 every 5 check no

fix			qeq all qeq/reax 1 0.0 10.0 1e-6 reax/c
fix			bonds all reax/c/bonds 500 bonds.reaxc
fix			npt all npt temp 300 300 100 iso 1.0 1.0 2000
fix 1 all reax/c/species 10 10 100 species.out cutoff 1 4 0.25
WARNING: Resetting reneighboring criteria for fix reax/c/species (../fix_reaxc_species.cpp:97)


thermo			100
thermo_style            custom step temp pe etotal press vol density
thermo_modify           flush yes

timestep		0.25

dump			1 all custom 1000 dump/dump.reax.npt.* id type xu yu zu
restart			500 restart.npt300 restart.npt300
run 1000000
Last active /omp style is pair_style reax/c/omp
Neighbor list info ...
  update every 100 steps, delay 0 steps, check no
  max neighbors/atom: 2000, page size: 100000
  master list distance cutoff = 12.5
  ghost atom cutoff = 12.5
  binsize = 6.25, bins = 11 11 11
  2 neighbor lists, perpetual/occasional/extra = 2 0 0
  (1) pair reax/c/omp, perpetual
      attributes: half, newton off, ghost, omp
      pair build: half/bin/newtoff/ghost/omp
      stencil: half/ghost/bin/3d/newtoff
      bin: standard
  (2) fix qeq/reax/omp, perpetual, copy from (1)
      attributes: half, newton off, ghost
      pair build: copy
      stencil: none
      bin: none
Per MPI rank memory allocation (min/avg/max) = 70.98 | 70.98 | 70.98 Mbytes
Step Temp PotEng TotEng Press Volume Density 
       0            0   -111320.92   -111320.92     152.0442       274625  0.038816842 
     100    142.48073   -111704.79   -111307.69    273.98887     274611.2  0.038818793 
     200    165.08205   -111746.82   -111286.72   -151.29443    274579.63  0.038823256 
     300    171.37964   -111741.08   -111263.44    199.78915    274539.71  0.038828901 
     400    169.50796   -111707.08   -111234.65    -153.4119    274488.08  0.038836205 
     500    171.47751   -111680.97   -111203.05   -109.94471     274383.5  0.038851007 
     600    190.15846    -111699.4   -111169.42   0.34338459    274226.29   0.03887328 
     700    191.15453    -111667.2   -111134.45   -90.995632    274037.72   0.03890003 
     800    200.84706    -111657.2   -111097.43   -111.34965    273820.54  0.038930883 
     900    208.19022   -111639.14    -111058.9    105.33599    273604.35  0.038961645 
    1000    215.53009   -111619.53   -111018.84   -121.14217    273427.48  0.038986847 
    1100     211.5296   -111567.78   -110978.24    289.53016    273279.42   0.03900797 
    1200    222.70429    -111556.8   -110936.12   -63.580974    273192.56  0.039020372 
    1300    244.88823    -111577.2   -110894.68   -167.18979    273111.72  0.039031922 
    1400    249.21789   -111548.01   -110853.43   -119.04331    272997.53  0.039048249 
    1500    261.17611      -111539   -110811.08    385.50041    272865.12  0.039067197 
    1600    262.26184   -111500.53   -110769.59    318.99275    272746.64  0.039084167 
    1700    268.73831   -111476.83   -110727.84   -105.03107    272662.12  0.039096283 
    1800     265.4403   -111428.98   -110689.19    456.14578    272625.46   0.03910154 
    1900    278.59325   -111427.39   -110650.94    161.81027    272640.75  0.039099347 
    2000     291.5565   -111427.67   -110615.08   -188.04959    272710.77  0.039089308 
    2100    286.87816   -111380.21   -110580.67    354.43624    272790.17   0.03907793 
    2200    286.17559   -111345.78    -110548.2   -15.187569    272884.96  0.039064356 
    2300    307.55639   -111374.96   -110517.79   -74.690913    272969.91  0.039052199 
    2400    298.66465   -111323.35   -110490.95   -59.125555    273042.33  0.039041842 
    2500    306.30449   -111321.67   -110467.98    19.462016    273121.21  0.039030566 
    2600    309.06285    -111310.2   -110448.82    326.29292       273243   0.03901317 
    2700     312.1633   -111303.98   -110433.96    139.11375    273438.76  0.038985238 
    2800    311.34862   -111291.16   -110423.42   -36.465589    273690.72  0.038949348 
    2900     310.5788   -111282.65   -110417.05   -217.18373    273924.28   0.03891614 
    3000    330.27459   -111336.77   -110416.28     47.43297    274089.69  0.038892654 
    3100    310.61051   -111288.12   -110422.43   -64.585745    274254.79  0.038869241 
    3200     317.6336    -111318.3   -110433.04    27.392608    274464.47  0.038839546 
    3300    306.74101   -111303.53   -110448.62    487.32494    274707.51  0.038805183 
    3400    310.84218   -111332.26   -110465.93   -20.398217    274984.41  0.038766108 
    3500    292.75971   -111301.12   -110485.18   -19.544619    275234.73  0.038730852 
    3600    288.02137   -111305.35   -110502.62   -40.022213    275413.22  0.038705751 
    3700    297.83218   -111348.49   -110518.42   -202.33886    275567.39  0.038684096 
    3800    294.11133   -111351.55   -110531.84    -42.43137     275686.2  0.038667425 
    3900    286.81877   -111341.73   -110542.35   -335.26049    275773.53   0.03865518 
    4000     297.7378   -111378.65   -110548.84    81.448967    275811.76  0.038649821 
    4100    282.72195   -111339.84   -110551.87    82.135916     275835.8  0.038646454 
    4200    291.16386   -111361.73   -110550.24   -61.620772    275838.64  0.038646055 
    4300     296.2234   -111371.15   -110545.56   -295.48291    275808.83  0.038650232 
    4400    299.35253   -111371.79   -110537.48    115.10132    275737.87   0.03866018 
    4500    299.30916   -111362.31   -110528.12    -350.3512    275608.16  0.038678374 
    4600    304.02372   -111365.03   -110517.69    311.85116     275436.9  0.038702423 
    4700    301.17099   -111344.52   -110505.14   -148.92591    275285.41   0.03872372 
    4800    306.38731   -111347.72    -110493.8   -38.366076    275094.88  0.038750541 
    4900    316.28222    -111364.3   -110482.81    41.715522    274893.71  0.038778899 
    5000    308.65801    -111335.7   -110475.46   -19.194534     274714.1  0.038804253 
    5100    311.15362   -111337.13   -110469.92   -286.66572    274574.32  0.038824008 
    5200    304.45414    -111317.4   -110468.87   -108.49776    274449.79  0.038841624 
    5300    306.91051   -111323.55   -110468.17   -85.622044    274342.14  0.038856865 
    5400    313.67435   -111345.08   -110470.85   -132.17979    274236.47  0.038871836 
    5500    306.23699    -111330.5      -110477   -16.221143    274177.95  0.038880134 
    5600    296.85643   -111312.46   -110485.11   -147.47417    274201.31  0.038876821 
    5700    303.67167   -111340.64   -110494.29    260.30909    274284.96  0.038864965 
    5800    303.71307    -111350.6   -110504.14    43.497347    274404.85  0.038847985 
    5900     296.4552   -111340.36   -110514.12    233.57543    274550.38  0.038827393 
    6000    291.41706   -111335.54   -110523.34   -204.24443    274730.74  0.038801903 
    6100    292.69182   -111345.72   -110529.97    140.02129    274896.55  0.038778498 
    6200    298.19684   -111367.21   -110536.12    -264.0446    275053.76  0.038756334 
    6300    303.63828    -111387.2   -110540.95      132.621    275226.03  0.038732076 
    6400    292.08386   -111359.25   -110545.19    107.20644    275458.27  0.038699421 
    6500    286.15577   -111344.66   -110547.12     152.6944    275740.71  0.038659781 
    6600    297.69743   -111375.89   -110546.19   -15.501425    276065.14  0.038614348 
    6700    289.33949   -111349.79   -110543.38     124.6082    276413.04  0.038565746 
    6800    295.04475   -111359.96   -110537.66    56.639338    276770.22  0.038515977 
    6900    300.51587   -111368.59   -110531.03    133.79506    277107.79  0.038469057 
    7000    296.17783   -111349.23   -110523.77    26.454308    277457.79   0.03842053 
    7100    288.89516   -111322.19   -110517.02    71.879599    277817.99  0.038370717 
    7200    296.70291   -111337.87   -110510.94    -225.0491    278187.03  0.038319814 
    7300    312.30926   -111374.23    -110503.8   -22.164595    278551.15  0.038269723 
    7400    307.39171   -111354.65   -110497.93   -31.429455    278879.37  0.038224682 
    7500    308.50951   -111352.79   -110492.95   -164.54143    279149.01  0.038187759 
    7600    307.95167   -111347.99   -110489.71   -1.0535736    279371.39  0.038157362 
    7700    295.18526   -111310.54   -110487.84   -413.76485    279575.16  0.038129552 
    7800    304.99363   -111337.57   -110487.54    204.41051    279768.17  0.038103246 
    7900    297.67767   -111317.41   -110487.76    34.916306    279982.83  0.038074033 
    8000    292.61353   -111303.41   -110487.88   -170.99587    280166.39  0.038049087 
    8100    294.48689   -111307.67   -110486.91   -89.559692    280320.74  0.038028136 
    8200    296.27101   -111309.96   -110484.23    92.923578    280454.51  0.038009998 
    8300    302.75727   -111324.79   -110480.99   -369.56345    280571.73  0.037994118 
    8400     307.9187   -111335.56   -110477.37    -174.4804    280637.54  0.037985208 
    8500    306.08792   -111327.75   -110474.66    340.85366     280664.7  0.037981532 
    8600    303.59393    -111318.4   -110472.26   -165.62435    280704.73  0.037976116 
    8700    301.89142   -111313.28   -110471.89   -227.93841    280756.93  0.037969055 
    8800    302.76722   -111316.64   -110472.81    339.87175    280766.81  0.037967719 
    8900    293.71397   -111292.31   -110473.71   -386.69919    280730.71  0.037972601 
    9000    299.60581   -111310.14   -110475.12    -239.2243    280632.76  0.037985855 
    9100    303.44881    -111321.1   -110475.37    256.30146    280525.54  0.038000374 
    9200    296.88459   -111304.28   -110476.85   -64.637698    280484.19  0.038005975 
    9300     289.3831   -111284.53   -110478.01   -68.764135    280478.51  0.038006746 
    9400     301.0648   -111318.56   -110479.47   -114.98681    280449.33    0.0380107 
    9500    304.22089   -111326.44   -110478.56     43.17008    280389.13  0.038018861 
    9600    298.98917    -111311.5    -110478.2    247.57198    280329.32  0.038026972 
    9700    294.00639   -111296.52   -110477.11   -49.262379    280285.99  0.038032852 
    9800    298.98274    -111308.6   -110475.32    -161.8043    280266.81  0.038035454 
    9900    306.86821   -111330.46    -110475.2     25.52791     280252.9  0.038037342 
   10000    298.85951   -111308.03   -110475.09     87.65564    280217.41  0.038042159 
   10100    309.19238   -111337.77   -110476.03   0.46034003    280146.95  0.038051728 
   10200     303.7085   -111325.84   -110479.38   -65.445577    280035.77  0.038066835 
   10300    292.27412   -111298.38   -110483.79   -104.86391    279896.55  0.038085769 
   10400    309.61817   -111351.51   -110488.58    117.80455    279763.96  0.038103819 
   10500    301.27329   -111334.78   -110495.11   -313.77822    279594.18  0.038126957 
   10600    292.86182   -111319.24   -110503.02   -228.25305    279362.77   0.03815854 
   10700    287.19286   -111311.88   -110511.46    206.20369    279092.01  0.038195559 
   10800    301.68119   -111359.73   -110518.93    75.031638    278841.22  0.038229912 
   10900    291.98869   -111339.95   -110526.16    23.601803    278607.35  0.038262004 
   11000    299.81977   -111367.68   -110532.07   -127.51184    278371.11  0.038294474 
   11100    289.95417   -111343.98   -110535.86   -90.821903    278119.37  0.038329136 
   11200    303.33432   -111383.48   -110538.07    174.15327    277860.13  0.038364897 
   11300    295.11985   -111360.57   -110538.06   -77.635897     277612.7  0.038399091 
   11400    292.90691    -111351.9   -110535.55     120.8341    277405.08  0.038427831 
   11500      298.136   -111361.01   -110530.09    95.222101    277240.46  0.038450649 
   11600    295.08843   -111346.57   -110524.14   -40.945656     277099.5  0.038470208 
   11700    297.39312   -111345.96   -110517.11    298.04943    276938.38  0.038492589 
   11800    303.50106   -111355.88   -110510.01   -236.27171    276761.08  0.038517248 
   11900    309.84342   -111367.55      -110504   -423.90037    276606.51  0.038538772 
   12000    297.47477   -111328.48    -110499.4    151.17123    276532.13  0.038549139 
   12100     301.7123   -111336.59    -110495.7   -102.37441    276542.76  0.038547657 
   12200    300.88113   -111333.28    -110494.7   -279.04901    276553.64   0.03854614 
   12300    308.29737    -111353.2   -110493.96   -134.13602    276586.67  0.038541537 
   12400    307.85558   -111351.83   -110493.82   -11.903397    276664.28  0.038530726 
   12500    296.50966   -111323.08   -110496.69   -117.26931    276752.96  0.038518379 
   12600     312.7249   -111373.34   -110501.75   -134.87657    276810.03  0.038510438 
   12700    301.05717   -111348.17   -110509.11    298.24357    276831.67  0.038507427 
   12800     292.8605   -111335.08   -110518.86   -144.86914     276854.3  0.038504279 
   12900    293.21997   -111346.16   -110528.94    -222.3374    276905.01  0.038497228 
   13000    290.65849   -111347.62   -110537.54   -88.492713    276934.16  0.038493176 
   13100    291.69186   -111356.35   -110543.39   -118.62971    276940.89  0.038492241 
   13200    291.36786   -111358.99   -110546.93   -15.458958     276927.4  0.038494115 
   13300    290.42976   -111356.92   -110547.47   -198.02159    276923.93  0.038494598 
   13400    297.23976   -111373.46   -110545.03   -203.45918    276880.16  0.038500684 
   13500    293.78186   -111359.53   -110540.74   -98.334214    276845.09  0.038505561 
   13600    311.51825   -111400.17   -110531.95   -50.092215    276788.81  0.038513389 
   13700    306.87547   -111375.38    -110520.1   -189.39452    276750.72   0.03851869 
   13800    305.17885   -111355.54   -110504.99   -273.73589     276710.9  0.038524233 
   13900    302.30046   -111332.14   -110489.61   -293.80337    276675.59  0.038529151 
   14000    308.66714   -111335.55   -110475.28    257.80527    276665.07  0.038530615 
   14100    311.46584   -111332.79   -110464.71   -87.907641    276625.77   0.03853609 
   14200     302.0591   -111300.75    -110458.9    236.29358    276540.69  0.038547946 
   14300    306.54598      -111311   -110456.64   -89.345678    276415.46   0.03856541 
   14400    318.41489    -111347.4   -110459.96   -113.68763    276258.94  0.038587259 
   14500    315.75185   -111346.79   -110466.77    164.40199    276120.46  0.038606612 
   14600    305.09543   -111325.74   -110475.42   -273.72449     276044.8  0.038617193 
   14700    299.37107   -111317.73   -110483.37   -17.473812    275961.37  0.038628868 
   14800    306.01905   -111343.32   -110490.42    223.48189    275826.12  0.038647809 
   14900    304.43609   -111345.26   -110496.78    91.699888    275682.83  0.038667898 
   15000     300.3412   -111338.15   -110501.09    -174.2527    275564.15   0.03868455 
   15100     307.6418   -111362.79   -110505.38   -147.00625    275480.81  0.038696254 
   15200    310.06518   -111374.89   -110510.72    167.40262    275418.04  0.038705072 
   15300    299.31733   -111349.75   -110515.53    116.08971    275385.76   0.03870961 
   15400     292.5687    -111334.5    -110519.1   -165.50279    275389.62  0.038709068 
   15500    293.42875   -111339.67   -110521.87    261.49133    275416.49  0.038705291 
   15600    294.69103   -111342.67   -110521.35   0.17377905    275451.32  0.038700397 
   15700     302.2643    -111361.4   -110518.97    253.90471    275474.69  0.038697114 
   15800    288.71106   -111319.43   -110514.78    305.24372     275501.1  0.038693403 
   15900    302.52069   -111351.51   -110508.37   -141.43303     275555.8  0.038685723 
   16000    291.86342   -111314.37   -110500.93   -86.632488    275612.56  0.038677756 
   16100    301.59313   -111328.12   -110487.57   -384.99364    275616.89  0.038677149 
   16200    307.23064   -111325.87    -110469.6   -89.018157    275535.41  0.038688586 
   16300    309.87628   -111314.64   -110450.99    142.29801    275426.47  0.038703888 
   16400    299.48169   -111273.46   -110438.79    401.51939    275323.93  0.038718303 
   16500    314.77655   -111309.04   -110431.74   -64.150766    275235.16   0.03873079 
   16600    315.38965   -111309.46   -110430.45   -15.093375    275141.26  0.038744009 
   16700    319.36623   -111324.86   -110434.77   -345.57613    274982.96  0.038766312 
   16800    316.35822   -111325.23   -110443.53   -149.58389    274784.77  0.038794273 
   16900    314.80727   -111332.71   -110455.32    415.90919    274545.39  0.038828098 
   17000    310.16005   -111331.91   -110467.47   -227.00822    274309.17  0.038861535 
   17100    306.66706   -111333.82   -110479.13   -47.313684    274075.11  0.038894723 
   17200    299.62732      -111325   -110489.92   -339.29428    273851.81  0.038926437 
   17300     307.4588   -111356.97   -110500.06   -178.12333    273597.11  0.038962676 
   17400     293.9016   -111329.23   -110510.11   -74.876148    273331.61  0.039000521 
   17500    302.90011    -111362.3    -110518.1    93.658055    273018.69  0.039045223 
   17600    303.51883   -111372.72    -110526.8    68.890251    272678.37  0.039093954 
   17700    304.66654   -111384.16   -110535.04   -67.915907    272288.18  0.039149975 
   17800    303.03386   -111386.76   -110542.18    157.62645    271893.58  0.039206793 
   17900    297.04847   -111376.35   -110548.46   -107.65364    271496.25  0.039264172 
   18000    291.42262   -111364.57   -110552.36   -277.19285    271091.29  0.039322825 
   18100    302.00247   -111396.48   -110554.78   -217.46932    270635.03  0.039389119 
   18200    293.15445   -111371.09   -110554.05   -124.92829    270102.51  0.039466776 
   18300    294.88364   -111374.47   -110552.62    99.896993    269524.63  0.039551395 
   18400    302.11719   -111387.95   -110545.93    22.919448    268969.44  0.039633036 
   18500    300.22356   -111372.32   -110535.58   -9.0085384    268472.01  0.039706469 
   18600    295.06799   -111343.78   -110521.41    71.463589    268006.27  0.039775469 
   18700    296.11225   -111329.74   -110504.46    375.61572    267582.95  0.039838395 
   18800    305.15825   -111339.49      -110489   -264.63974    267169.22  0.039900088 
   18900    313.96902   -111355.07   -110480.02    247.02907    266756.26  0.039961857 
   19000    308.09663   -111334.34   -110475.65    46.193488    266374.33  0.040019154 
   19100    307.49138   -111332.96   -110475.97    324.54752     266029.9  0.040070967 
   19200    309.90631   -111342.73      -110479   -98.707411    265732.65   0.04011579 
   19300     306.0016    -111336.6   -110483.76    201.82716    265474.03  0.040154871 
   19400    305.05555   -111339.13   -110488.93     453.5669    265274.28  0.040185108 
   19500     295.9148   -111319.36   -110494.63    300.68195     265126.9  0.040207445 
   19600    305.56107   -111351.65   -110500.04    234.86698    265027.67    0.0402225 
   19700    295.53693   -111328.99   -110505.31    112.29606    264977.21   0.04023016 
   19800    303.00657   -111352.98   -110508.49   -88.188508    264967.13   0.04023169 
   19900    302.99139    -111356.5   -110512.05   -398.28986    264955.46  0.040233461 
   20000    298.17114   -111346.44   -110515.42    151.26536    264912.72  0.040239952 
   20100    298.64031   -111349.41   -110517.08    136.77904    264831.41  0.040252307 
   20200    299.86507   -111354.17   -110518.43   -287.43037    264753.99  0.040264079 
   20300    303.69213   -111365.88   -110519.47    91.502431    264656.47  0.040278914 
   20400    296.65516   -111346.88   -110520.08   -146.73022    264541.48  0.040296423 
   20500    292.17024   -111333.65   -110519.36   -187.84473    264351.75  0.040325345 
   20600    296.41978    -111343.1   -110516.96    234.78935    264129.62  0.040359258 
   20700    293.65167   -111328.29   -110509.87   -301.41109    263892.33  0.040395548 
   20800    297.95914    -111328.1   -110497.67   -230.41225    263610.94  0.040438668 
   20900    301.74072   -111321.98   -110481.01   -552.12299    263271.91  0.040490744 
   21000    320.58041   -111358.48      -110465   -5.1032922    262894.93  0.040548806 
   21100    292.45538   -111269.97   -110454.88    100.41806    262543.61  0.040603066 
   21200    317.88947   -111332.66   -110446.68    157.14267    262218.33  0.040653433 
   21300    318.44629   -111330.01   -110442.48   -161.32948    261871.28   0.04070731 
   21400    308.04883    -111301.6   -110443.05   -141.39939    261445.42  0.040773617 
   21500    304.40182   -111295.19    -110446.8    72.398708    261029.14   0.04083864 
   21600    298.61558   -111286.92   -110454.66   -67.267453    260669.26  0.040895023 
   21700    303.00817   -111309.89   -110465.39   -125.71433    260344.37  0.040946056 
   21800    304.15327   -111326.25   -110478.55    127.67682     260019.1  0.040997277 
   21900    303.74072   -111338.19   -110491.65   -314.39343    259673.97  0.041051767 
   22000    312.02319   -111373.26   -110503.63    -232.6533    259285.23  0.041113315 
   22100    308.17961   -111372.08   -110513.16   -36.527485    258861.02   0.04118069 
   22200    300.34018    -111357.1   -110520.03   -83.930645    258388.03  0.041256072 
   22300    301.94633   -111366.41   -110524.87   -81.192999    257880.19  0.041337317 
   22400    307.55219   -111385.19   -110528.03    106.13807    257368.38  0.041419523 
   22500    294.97366   -111351.96   -110529.85    30.288131    256887.08  0.041497125 
   22600    294.23574   -111350.76   -110530.71   -295.64024    256414.43  0.041573616 
   22700    293.47851   -111348.91   -110530.96    50.521608    255901.51  0.041656946 
   22800    297.72505   -111359.09   -110529.32   -272.96681    255369.95  0.041743657 
   22900    309.72928   -111390.27   -110527.04    327.28761    254849.05  0.041828978 
   23000    301.80905   -111365.42   -110524.26    497.26667    254391.51  0.041904211 
   23100    301.55936   -111362.73   -110522.26    -78.24753    254004.59  0.041968042 
   23200    297.56858   -111349.62   -110520.28    56.063507    253640.09  0.042028353 
   23300    311.03178   -111384.37   -110517.51   -314.13553    253255.39  0.042092195 
   23400    309.50089   -111378.52   -110515.93   -136.39011     252851.8   0.04215938 
   23500    308.42034   -111374.73   -110515.14    350.64226    252449.57  0.042226553 
   23600    300.96735   -111352.78   -110513.97   -138.48487     252080.7  0.042288345 
   23700    305.30012   -111364.06   -110513.17   -94.057928    251728.67  0.042347483 
   23800    299.28859   -111346.63    -110512.5    174.61806    251374.05  0.042407224 
   23900    304.90402   -111361.27   -110511.48   -301.61679     251010.2  0.042468695 
   24000    298.27081   -111340.39    -110509.1    90.907556    250627.93  0.042533469 
   24100    305.47539   -111356.93   -110505.55    47.881864    250253.23  0.042597154 
   24200    298.16831   -111333.73   -110502.72   -335.39376    249870.72  0.042662363 
   24300    308.13526   -111357.77   -110498.98    80.559871    249471.68  0.042730604 
   24400    311.43478   -111367.02   -110499.03   -279.43617    249087.77  0.042796462 
   24500    301.31603   -111341.83   -110502.04   -48.481217    248739.79  0.042856333 
   24600    301.56802   -111346.97   -110506.48    -355.2525    248416.53  0.042912102 
   24700    301.29912   -111352.79   -110513.05    -136.5506    248079.38   0.04297042 
   24800    306.44948   -111375.71   -110521.62   -10.841351    247710.33   0.04303444 
   24900     300.6968   -111369.07   -110531.01    107.90235    247362.95  0.043094874 
   25000    293.63418   -111360.46   -110542.08   -17.801409    247041.95  0.043150871 
   25100    305.71159   -111404.88   -110552.84    129.31071    246742.29  0.043203276 
   25200    297.69701    -111391.7      -110562   -224.61266    246442.91   0.04325576 
   25300    284.49832   -111362.68   -110569.77   -311.55635    246124.48  0.043311724 
   25400    293.31472   -111391.24   -110573.75   -66.490223    245783.47  0.043371816 
   25500    284.55617   -111368.34   -110575.26    332.25379     245455.6   0.04342975 
   25600    291.79081   -111385.94   -110572.71   -180.33704    245161.81  0.043481795 
   25700    296.07939   -111393.32   -110568.13   -232.93515    244869.92  0.043533625 
   25800    298.04414   -111390.77   -110560.11   -340.20922    244532.39  0.043593715 
   25900    299.87733   -111380.97    -110545.2   -185.16744    244152.37  0.043661569 
   26000    291.42259   -111337.71    -110525.5   -237.50032    243741.92  0.043735092 
   26100    297.06279    -111333.7   -110505.77   -268.58962    243329.32  0.043809251 
   26200    297.91251   -111325.94   -110495.64    108.91016    242929.05  0.043881435 
   26300    303.31932   -111335.64   -110490.28   -129.62055    242548.27  0.043950326 
   26400    314.43082   -111365.51   -110489.17   -184.67573    242145.25  0.044023476 
   26500    302.62155   -111334.46   -110491.03    56.213842    241704.42  0.044103767 
   26600    307.77182   -111351.43   -110493.65    270.35993    241277.87  0.044181736 
   26700    305.92193   -111351.28   -110498.66    30.663564     240891.1  0.044252674 
   26800    307.56214   -111363.67   -110506.48   -329.41192    240561.15  0.044313371 
   26900    303.42816   -111361.46   -110515.79    27.565451    240226.31  0.044375137 
   27000    302.61539    -111368.9   -110525.49   -230.79731    239915.79  0.044432571 
   27100     298.2986   -111369.47    -110538.1    395.34816    239618.44  0.044487709 
   27200    299.18773   -111382.47   -110548.62   -706.02396    239356.93  0.044536313 
   27300    286.56166    -111355.3   -110556.63    98.614568     239078.7  0.044588144 
   27400     287.7682   -111362.68   -110560.65    166.21062    238792.52  0.044641579 
   27500    283.51595   -111349.85   -110559.67   -264.75449    238503.14  0.044695745 
   27600    282.99187   -111344.55   -110555.83    233.02393    238205.84  0.044751527 
   27700    296.50945   -111373.53   -110547.14    148.57091    237929.75  0.044803457 
   27800    294.22849   -111355.71   -110535.68    270.12492    237710.81  0.044844722 
   27900    302.09406   -111365.23   -110523.28    272.09933    237551.18  0.044874857 
   28000    300.08414      -111350   -110513.65   -100.49571    237406.58   0.04490219 
   28100    301.94487    -111348.9   -110507.37   -29.201795    237231.72  0.044935287 
   28200    309.48908   -111365.28   -110502.71   -207.94004    237032.75  0.044973007 
   28300    302.17717   -111342.83   -110500.65    69.313776    236846.68  0.045008338 
   28400    304.72641   -111349.94   -110500.65    94.915665    236714.11  0.045033545 
   28500     297.5244   -111330.02   -110500.81     54.11065    236582.88  0.045058524 
   28600    311.81553   -111369.64   -110500.59    170.18006    236427.72  0.045088094 
   28700    303.25906    -111347.9    -110502.7   -5.9273882    236254.02  0.045121245 
   28800    303.95965    -111352.6   -110505.45    284.32476    236086.54  0.045153253 
   28900    304.86019   -111359.16    -110509.5   -675.69536    235967.55  0.045176022 
   29000    304.17975   -111362.11   -110514.34    151.34504    235870.72  0.045194568 
   29100    299.04933   -111354.45   -110520.98   -185.88788    235767.39  0.045214375 
   29200    295.06246   -111348.63   -110526.27    43.404252    235628.35  0.045241057 
   29300    294.30614   -111351.47   -110531.23   -113.17037    235513.96   0.04526303 
   29400    293.78447   -111354.58   -110535.79   -248.93947    235409.63   0.04528309 
   29500    293.33306   -111358.62   -110541.09    184.34588    235295.94   0.04530497 
   29600    300.33326   -111384.01   -110546.96    74.881307    235196.24  0.045324175 
   29700    307.75896   -111414.04    -110556.3    -143.7358     235122.1  0.045338467 
   29800    289.53326   -111375.98   -110569.03   -384.65678    235056.88  0.045351047 
   29900    305.14557   -111433.37   -110582.91    287.65695       234979  0.045366077 
   30000    295.96228   -111421.57   -110596.71    -3.341834    234905.61  0.045380251 
   30100    292.98884   -111424.78   -110608.21   -391.51061    234807.85  0.045399144 
   30200    285.73618   -111411.11   -110614.75   -216.75446    234690.97  0.045421754 
   30300    279.95137   -111395.25   -110615.01   -50.965369    234538.83  0.045451218 
   30400    292.76417   -111426.37   -110610.42   -116.55028    234396.85  0.045478747 
   30500    283.99197   -111392.62   -110601.12    48.697968    234257.48  0.045505806 
   30600    283.56698   -111376.78   -110586.46    32.706068     234112.1  0.045534065 
   30700    291.51873   -111382.99   -110570.52    228.92258    233957.95  0.045564066 
   30800    293.08053   -111374.24   -110557.41    139.99126    233818.72  0.045591198 
   30900    299.75703   -111382.21   -110546.77    375.17925    233652.69  0.045623593 
   31000    291.01095   -111347.79   -110536.73   -297.21387    233513.35  0.045650818 
   31100    301.79976   -111369.15   -110528.02    262.89311    233400.33  0.045672924 
   31200    308.99927   -111383.26   -110522.06   -229.36382    233322.18  0.045688221 
   31300    313.32341      -111392   -110518.75    487.84089    233247.53  0.045702843 
   31400    309.92174   -111382.01   -110518.24   -394.34092    233169.94  0.045718052 
   31500    303.12769   -111366.07   -110521.24    325.32667    233042.42  0.045743069 
   31600    288.36497   -111330.02   -110526.33    249.70781    232847.67  0.045781328 
   31700    303.92211   -111377.86   -110530.81     78.83553    232625.02  0.045825145 
   31800    291.18219   -111347.48   -110535.93    -251.6459     232409.8  0.045867581 
   31900     296.6917   -111366.55   -110539.66     112.3645    232202.67  0.045908495 
   32000    298.97732   -111375.53   -110542.26   -290.99244    231982.59  0.045952049 
   32100    297.93412   -111374.52   -110544.17   -428.51564    231786.15  0.045990994 
   32200    294.98332   -111369.07   -110546.94   -2.2964975    231618.13  0.046024356 
   32300    303.63161   -111395.21   -110548.97   -117.21347     231468.5  0.046054108 
   32400     291.4189   -111363.22   -110551.02   -93.333643    231328.75  0.046081931 
   32500    296.05065   -111379.86   -110554.75    269.61115    231213.25  0.046104951 
   32600    298.09116   -111390.34   -110559.54   -25.145826    231120.57  0.046123438 
   32700     292.8315   -111380.51   -110564.38    161.13627    231049.72  0.046137583 
   32800    293.83696    -111388.8   -110569.86    99.171034     231001.9  0.046147133 
   32900    293.43352   -111393.85   -110576.04   -230.50046       230984  0.046150709 
   33000     296.5517   -111409.34   -110582.83    182.57489    230979.38  0.046151632 
   33100    290.14058   -111396.82   -110588.18   -76.593015       230961  0.046155305 
   33200    293.98971    -111411.9   -110592.53    -406.4644    230919.94  0.046163511 
   33300    291.52577   -111406.27   -110593.77   -268.84022    230835.42  0.046180414 
   33400    282.57155   -111380.37   -110592.83    121.04482    230759.38  0.046195632 
   33500     287.9978   -111389.22   -110586.56   -143.43187       230719  0.046203716 
   33600    284.32558   -111367.07   -110574.63    205.01485    230666.23  0.046214286 
   33700    288.86544   -111362.43   -110557.34    53.079574    230616.03  0.046224346 
   33800     288.1383   -111343.02   -110539.96   -48.645843    230564.84   0.04623461 
   33900    293.93608   -111346.79   -110527.57    -288.7553    230508.91  0.046245827 
   34000    305.61071   -111369.18   -110517.43   -136.13481    230448.71  0.046257909 
   34100    300.52984   -111347.32   -110509.73    168.76666     230388.6  0.046269978 
   34200     303.4218   -111348.93   -110503.28    -17.71869    230325.68  0.046282617 
   34300    315.09859   -111376.92   -110498.73     40.57306    230257.42  0.046296337 
   34400    303.45418   -111342.78   -110497.04    -258.0331    230165.03  0.046314921 
   34500    300.74748   -111336.21   -110498.01    499.73917     230060.5  0.046335966 
   34600    299.46718   -111335.17   -110500.54   -110.18308    229975.62  0.046353067 
   34700    310.25288   -111368.95   -110504.26    45.828219    229881.61  0.046372023 
   34800    308.15434   -111368.58   -110509.73   -365.17758    229775.93   0.04639335 
   34900    298.57989    -111350.5   -110518.34    38.529976    229634.11  0.046422003 
   35000    301.58531    -111368.8   -110528.27   -163.40949    229474.01  0.046454391 
   35100    305.48414   -111392.01   -110540.61    40.677428    229308.85  0.046487849 
   35200    297.61065   -111379.91   -110550.45   -156.66537    229152.92  0.046519484 
   35300    294.43439   -111379.55   -110558.95    335.87189    228976.57   0.04655531 
   35400    288.44668   -111369.19   -110565.27    6.7065149    228784.89  0.046594315 
   35500     290.6205   -111379.22   -110569.24    213.84292    228576.39  0.046636818 
   35600    287.71565   -111372.75   -110570.87   -210.89151    228323.02  0.046688571 
   35700    282.07976    -111354.1   -110567.93   -199.30221    228017.65  0.046751098 
   35800    295.73247    -111385.3   -110561.07    24.851238    227697.18  0.046816896 
   35900    306.61943   -111399.23   -110544.66    111.34973    227414.45  0.046875101 
   36000    310.44006   -111385.29   -110520.08   -287.06947    227158.06  0.046928008 
   36100    302.67537   -111341.35   -110497.78    2.6143881       226884  0.046984695 
   36200    315.33407   -111365.27   -110486.42   -253.59183    226599.17  0.047043753 
   36300    313.83208   -111358.01   -110483.34   -43.221991    226327.37  0.047100248 
   36400    311.49915   -111352.32   -110484.15   -340.95804    226090.07  0.047149684 
   36500    302.28157   -111330.79   -110488.31    17.560327    225881.62  0.047193195 
   36600    307.29973   -111349.77   -110493.31   -112.79392    225663.32  0.047238848 
   36700    300.48856   -111339.37   -110501.89     406.8981    225444.47  0.047284705 
   36800    314.24461   -111388.33   -110512.51   -171.25439    225253.83  0.047324725 
   36900    308.84011    -111386.3   -110525.54    296.96679    225090.05  0.047359158 
   37000    307.05451   -111393.27   -110537.49   -193.33912    224949.79  0.047388688 
   37100    298.42187   -111380.25   -110548.54   -44.291272    224802.58   0.04741972 
   37200    292.04071    -111370.8   -110556.87     168.6024    224648.24  0.047452298 
   37300    303.50534   -111410.26   -110564.38   -80.338657    224498.36  0.047483978 
   37400    299.97789   -111406.92   -110570.86    298.49055     224366.9    0.0475118 
   37500    298.13881   -111406.97   -110576.04     -496.404    224232.49  0.047540279 
   37600     296.4362   -111406.44   -110580.26    299.04386    224082.95  0.047572005 
   37700    299.36722    -111416.5   -110582.15    -400.2886    223918.77  0.047606885 
   37800    284.91396   -111375.57    -110581.5   -213.00161    223749.46   0.04764291 
   37900    289.81373   -111384.58   -110576.85   -223.72883    223579.93  0.047679035 
   38000    280.06954   -111350.64   -110570.07   -39.099706    223409.47  0.047715414 
   38100    305.52396   -111411.02   -110559.51     610.8492    223241.55  0.047751304 
   38200    300.20334   -111384.06   -110547.37   -417.68724    223070.65  0.047787888 
   38300    291.01753   -111346.16   -110535.08   -18.789323    222889.44  0.047826741 
   38400    302.34588   -111365.51   -110522.86   -113.21423    222689.27  0.047869731 
   38500    308.56981   -111374.36   -110514.36    223.26966    222487.29  0.047913187 
   38600    311.22837   -111378.34   -110510.93   -103.57373    222268.85  0.047960276 
   38700    306.25324   -111363.86   -110510.31   -10.955343    222031.21  0.048011607 
   38800    314.94279   -111389.57    -110511.8    73.516312    221780.18  0.048065952 
   38900    306.10265   -111368.55   -110515.42    206.87602    221547.67  0.048116397 
   39000     303.4277   -111365.38   -110519.71   -67.091809    221341.54  0.048161205 
   39100    295.26725   -111349.56   -110526.63   -458.17465    221164.14  0.048199837 
   39200    299.24105    -111367.6    -110533.6   -29.973805    220988.07   0.04823824 
   39300    309.04299   -111402.13   -110540.81   -171.41706    220818.85  0.048275206 
   39400    308.37815   -111407.83   -110548.36    20.026096    220640.26   0.04831428 
   39500     293.8914   -111374.56   -110555.47    41.481597    220432.72  0.048359769 
   39600    287.94982   -111363.49   -110560.96   -275.80646    220220.38  0.048406398 
   39700    293.65474   -111383.54    -110565.1    406.77561    220040.05  0.048446069 
   39800    302.83965   -111412.18   -110568.15    293.92405    219892.96  0.048478475 
   39900    302.52126    -111413.7   -110570.55   -102.11844       219737  0.048512883 
   40000     291.0334   -111383.83    -110572.7   -162.20111    219583.43  0.048546811 
   40100    297.13151   -111403.57   -110575.44    115.83425    219467.61  0.048572432 
   40200    297.73057   -111408.03   -110578.24    122.00968    219389.12  0.048589809 
   40300    290.87297   -111391.75   -110581.07   -28.665599    219331.62  0.048602547 
   40400    296.88509   -111410.15   -110582.71   -6.3870321    219273.56  0.048615416 
   40500    291.89459   -111395.89   -110582.36   -121.67824    219211.14   0.04862926 
   40600    291.62544   -111392.22   -110579.44    151.31397    219143.62  0.048644243 
   40700    291.87179   -111388.05   -110574.59    14.011645    219137.06  0.048645698 
   40800    295.32545   -111390.24   -110567.15    284.11003     219171.9  0.048637966 
   40900    306.38315   -111410.89   -110556.99   0.74469214    219232.35  0.048624555 
   41000     299.6124   -111379.71   -110544.67    431.74684    219293.54  0.048610988 
   41100    299.32517   -111366.88   -110532.65   -62.683352    219387.39  0.048590191 
   41200    301.91788   -111362.77   -110521.31    47.393415    219492.53  0.048566917 
   41300    300.62219   -111350.96   -110513.11   -85.121483    219589.33  0.048545507 
   41400    303.50328    -111353.6   -110507.71   -75.311325    219664.07  0.048528989 
   41500    312.62331   -111375.33   -110504.03    28.038563    219717.13   0.04851727 
   41600    296.23892    -111329.3   -110503.67    -122.9889    219771.47  0.048505274 
   41700    299.66293   -111341.57   -110506.39   -74.028563    219817.76   0.04849506 
   41800    298.39894   -111342.11   -110510.45   -319.41689    219842.65   0.04848957 
   41900    301.33537   -111354.37   -110514.53   -48.943127    219820.34   0.04849449 
   42000    297.16561   -111347.65   -110519.43   -383.23821    219748.74   0.04851029 
   42100    298.85436   -111356.34   -110523.41    174.39894    219630.32  0.048536446 
   42200    303.53532   -111371.85   -110525.88   -135.93202    219530.25  0.048558571 
   42300    295.64506   -111353.93   -110529.95   -64.409065    219425.54  0.048581744 
   42400    300.90557   -111371.63   -110532.99    247.40032    219287.02  0.048612431 
   42500    293.27449    -111353.7   -110536.32    7.5323676    219097.66  0.048654447 
   42600    299.06675   -111372.72    -110539.2   -52.753358    218856.89  0.048707971 
   42700    301.02712   -111380.73   -110541.75    391.42394    218571.72  0.048771523 
   42800    291.17718    -111354.3   -110542.78   -145.93396    218254.34  0.048842443 
   42900    294.90922   -111366.34   -110544.41   -67.347049    217932.78   0.04891451 
   43000    294.31198   -111366.12   -110545.85   -416.08872     217635.3  0.048981371 
   43100    293.27884   -111363.99    -110546.6   -180.63066    217351.48  0.049045332 
   43200     301.9837   -111388.71   -110547.07    140.13831    217077.22  0.049107297 
   43300    290.28266   -111355.41   -110546.37    -377.2789    216802.31  0.049169566 
   43400    291.93694   -111358.46   -110544.81    208.82764    216520.87  0.049233477 
   43500    301.10395   -111381.38   -110542.18   -41.513455    216226.38  0.049300532 
   43600    302.73394   -111383.07   -110539.33    169.13257    215940.85  0.049365719 
   43700    306.02464    -111388.1   -110535.19   -80.356533    215685.74  0.049424108 
   43800     300.3665   -111367.33   -110530.19   -69.237925    215433.05  0.049482079 
   43900    309.40859   -111385.85   -110523.51    241.88035    215179.98  0.049540275 
   44000    302.42527   -111360.71   -110517.84   -313.98122    214914.22  0.049601537 
   44100    308.29857   -111372.41   -110513.16    83.740409    214652.36  0.049662047 
   44200    295.52538   -111332.74   -110509.09    541.24232    214405.56  0.049719211 
   44300    304.24708   -111353.64   -110505.69    137.44761    214159.26  0.049776393 
   44400    307.37559   -111360.69   -110504.02    88.695199    213890.76  0.049838879 
   44500    310.34458   -111370.62   -110505.67   -163.46378    213583.49  0.049910577 
   44600    304.37165   -111357.72   -110509.42    530.84443     213279.5  0.049981716 
   44700     302.8166   -111362.08   -110518.12    -580.5731    213054.62  0.050034472 
   44800    301.58304   -111371.25   -110530.72    83.192511     212888.4  0.050073538 
   44900    290.07532   -111351.89   -110543.44   -328.93444    212751.31  0.050105804 
   45000    300.06673    -111390.3   -110553.99   -305.21511    212618.83  0.050137024 
   45100    298.87714   -111396.46   -110563.48   -130.68569    212497.07  0.050165753 
   45200    299.16478   -111405.18   -110571.39   -14.506676    212391.01  0.050190804 
   45300    292.07771   -111390.69   -110576.65    312.79385    212305.84  0.050210937 
   45400    293.96399   -111398.46   -110579.16    156.09243    212226.04  0.050229818 
   45500     283.0892   -111368.73   -110579.74   -199.04467    212114.64  0.050256197 
   45600    289.55448   -111383.83   -110576.82    467.28198    211976.46  0.050288959 
   45700    292.24306   -111385.67   -110571.17    270.62652    211873.85  0.050313313 
   45800    301.07604   -111402.23   -110563.11    388.89867    211803.66  0.050329987 
   45900    298.90242   -111385.15   -110552.09   -85.912327    211767.47  0.050338589 
   46000    303.04383   -111384.29   -110539.69   -529.20784    211740.11  0.050345092 
   46100     302.5484   -111368.46   -110525.24    193.54678    211698.73  0.050354932 
   46200     309.3334   -111373.26   -110511.13    261.68716    211655.06  0.050365322 
   46300    309.78545   -111363.31   -110499.92   -692.81538    211613.52  0.050375209 
   46400    310.43656   -111358.74   -110493.54    -419.1209    211531.28  0.050394794 
   46500    313.27393   -111364.85   -110491.73   -317.57669     211399.2   0.05042628 
   46600    309.58235   -111355.95   -110493.12    202.80934    211249.56  0.050462001 
   46700    305.51617   -111348.05   -110496.56    234.16431    211122.97  0.050492258 
   46800    299.97795   -111335.71   -110499.66   -422.06253    211023.07  0.050516161 
   46900    301.24677   -111342.15   -110502.56    168.91829     210925.6  0.050539504 
   47000    302.87425   -111349.37   -110505.24   -97.066579    210830.65  0.050562266 
   47100    309.74769    -111372.5   -110509.22    286.11758    210714.33  0.050590177 
   47200    300.42365   -111350.86   -110513.56   -84.659354    210582.48  0.050621853 
   47300    302.06883   -111360.93   -110519.05    151.01759    210414.12  0.050662357 
   47400    295.95137   -111350.18   -110525.34   -244.52175       210212  0.050711069 
   47500    303.96912   -111379.52   -110532.35    222.31917    209984.21  0.050766081 
   47600    303.70866   -111386.02   -110539.57     174.2887    209728.53   0.05082797 
   47700    307.58172   -111404.17   -110546.93   -230.92498    209480.79  0.050888081 
   47800    297.20885   -111382.04    -110553.7   -17.603574    209235.88  0.050947644 
   47900    290.31852   -111370.03    -110560.9    32.337406     208985.7  0.051008637 
   48000    290.87887   -111378.49   -110567.79    866.76184    208725.74  0.051072164 
   48100     300.8396   -111410.98   -110572.52   -184.44145    208485.23  0.051131083 
   48200    298.14562   -111406.97   -110576.02   -222.94812    208263.15  0.051185605 
   48300     298.4257   -111411.15   -110579.42   -110.45032    208017.32  0.051246094 
   48400    289.78933   -111389.82   -110582.17   -168.77738    207746.52  0.051312894 
   48500    295.48259   -111405.53   -110582.01   -405.04324    207479.81  0.051378858 
   48600    299.99372   -111415.04   -110578.94    168.03705    207242.91  0.051437588 
   48700    281.92171   -111355.19   -110569.46   -177.05958    207039.99  0.051488002 
   48800    284.69662    -111347.3   -110553.83    353.27345    206851.09  0.051535021 
   48900    297.37041   -111363.29    -110534.5   -242.01917    206671.44  0.051579818 
   49000    305.96002    -111372.4   -110519.67   -451.55205    206504.06  0.051621626 
   49100    300.80194   -111349.65    -110511.3    320.75699     206358.6  0.051658014 
   49200     298.6771   -111339.69   -110507.26   -133.52302    206245.32  0.051686388 
   49300    299.77434   -111341.03   -110505.54    116.63269    206112.14  0.051719784 
   49400    307.29132   -111361.34    -110504.9   -159.14171    205984.29  0.051751885 
   49500     303.6959   -111353.13   -110506.71   -400.22984    205890.44  0.051775475 
   49600    305.51151   -111361.33   -110509.85   -8.1769424    205878.91  0.051778374 
   49700    303.66388   -111360.33      -110514   -104.25717    205919.52  0.051768163 
   49800    310.03068   -111384.64   -110520.57   -182.96834    206002.43  0.051747328 
   49900    305.80084   -111381.74   -110529.46    71.020104    206101.69  0.051722405 
   50000    303.66056   -111386.95   -110540.63   -229.12055    206191.47  0.051699885 
   50100    302.35585   -111396.26   -110553.58   -351.94638    206263.45  0.051681843 
   50200    285.90906   -111362.25   -110565.41    21.854505    206316.39  0.051668581 
   50300    291.43862   -111385.85   -110573.59    38.175834    206364.54  0.051656527 
   50400    290.22892   -111387.32   -110578.43   -253.18115     206444.5  0.051636518 
   50500    301.32881   -111420.87   -110581.04    121.12027    206551.72  0.051609715 
   50600    286.48499   -111379.59   -110581.14   -295.10063    206641.84  0.051587206 
   50700    287.84085   -111379.22   -110576.99    54.963094    206661.92  0.051582195 
   50800     296.7371   -111396.82   -110569.79   -120.19075     206615.6  0.051593759 
   50900    289.42871   -111369.07   -110562.41    17.683458    206521.54  0.051617257 
   51000    299.31288   -111388.88   -110554.68   -51.071834    206436.45  0.051638532 
   51100    299.31478   -111382.35   -110548.14   -136.84015    206335.05  0.051663909 
   51200      304.567   -111392.13   -110543.28    314.82691    206196.25  0.051698687 
   51300    292.22657   -111355.44   -110540.98   -78.108251    206070.08  0.051730342 
   51400     302.8788   -111383.28   -110539.14   -226.03392    205974.88  0.051754249 
   51500    309.38789   -111401.58   -110539.29   -139.76148    205871.12  0.051780334 
   51600    304.10892    -111386.5   -110538.93   -687.42276    205726.27  0.051816791 
   51700    301.27666   -111378.92   -110539.25   -98.893956    205536.45  0.051864647 
   51800    299.98893   -111374.93   -110538.84   -30.323432    205345.99  0.051912753 
   51900    301.21299   -111378.89   -110539.39    -173.8537    205198.32  0.051950109 
   52000    293.06028   -111355.24   -110538.46   -137.18306    205095.87  0.051976062 
   52100    296.65184    -111365.4   -110538.61   -58.949656    205037.93  0.051990749 
   52200    304.09952   -111385.83   -110538.28    31.327891    204986.29  0.052003847 
   52300    301.72655   -111378.86   -110537.93    232.81858    204948.21  0.052013509 
   52400    313.44744   -111412.96   -110539.36   -450.17068    204914.48  0.052022069 
   52500    309.98566   -111406.06   -110542.11    403.34877    204891.72  0.052027848 
   52600     297.6145   -111376.33   -110546.86    374.20612    204900.18  0.052025701 
   52700    297.94463   -111383.67   -110553.28   -559.89269    204931.68  0.052017702 
   52800     303.1943   -111405.92    -110560.9   -291.49723    204953.68  0.052012119 
   52900    295.31547   -111394.13   -110571.07   -18.513106    204959.91  0.052010539 
   53000    287.43412   -111380.73   -110579.63   -175.67883    204948.56  0.052013418 
   53100    292.10139   -111401.12   -110587.02   -120.48242    204922.02  0.052020155 
   53200    284.12321   -111384.01   -110592.14    363.44243    204874.47  0.052032228 
   53300    291.54183   -111406.55      -110594    173.50533    204808.25  0.052049053 
   53400    296.20344   -111419.35   -110593.82    12.726858    204747.12  0.052064593 
   53500    300.14497   -111427.26   -110590.74    417.29266    204676.11  0.052082655 
   53600      301.623   -111423.84   -110583.19   -250.30269    204591.92  0.052104087 
   53700    294.70639   -111393.27   -110571.91    316.62331    204478.72  0.052132932 
   53800    301.29913   -111397.33   -110557.59   -227.69327     204367.9  0.052161202 
   53900    300.64523   -111380.67   -110542.75   -18.833161    204263.87  0.052187768 
   54000    308.29882   -111388.68   -110529.44    -135.3068    204168.59  0.052212121 
   54100    301.84341   -111361.59   -110520.34     61.49174    204061.15  0.052239613 
   54200    301.26667   -111353.97   -110514.32    367.00508    203945.67  0.052269191 
   54300    307.48421   -111366.77   -110509.79   -318.09721    203839.41   0.05229644 
   54400      298.897   -111341.67   -110508.62   -36.604109    203753.07  0.052318601 
   54500     297.7018   -111339.87   -110510.16    369.51409    203684.96  0.052336094 
   54600     294.3379   -111331.74    -110511.4    300.02401    203616.94  0.052353579 
   54700     308.9537   -111374.14   -110513.07    115.85639    203541.58  0.052372962 
   54800     302.6614   -111360.08   -110516.55    118.92592    203463.65  0.052393022 
   54900    307.83525   -111379.65    -110521.7   -186.88569    203401.35  0.052409069 
   55000    311.68776   -111397.59    -110528.9    321.33404    203338.47  0.052425276 
   55100    295.16151   -111358.93    -110536.3    232.69611     203277.1  0.052441102 
   55200    301.45489    -111383.6   -110543.43      47.9521    203221.57  0.052455433 
   55300    302.67155   -111394.33   -110550.77    142.97916    203163.89  0.052470324 
   55400    294.46052   -111375.89   -110555.22   -188.01853     203072.3  0.052493992 
   55500    292.86807   -111373.15   -110556.91   -473.56023    202969.56  0.052520561 
   55600    294.35999    -111378.4      -110558    572.75455    202861.48  0.052548545 
   55700    306.79352   -111412.69   -110557.64   -68.766202    202778.01  0.052570174 
   55800    298.84458   -111390.32   -110557.42    214.73442    202683.86  0.052594594 
   55900     307.1585   -111412.62   -110556.55   -85.310882     202573.9  0.052623143 
   56000    297.95733   -111386.43      -110556   -26.358682    202435.33  0.052659165 
   56100    305.22369   -111405.68      -110555   -562.13831    202303.59  0.052693457 
   56200    302.17658   -111397.16   -110554.97    -115.8267    202193.49   0.05272215 
   56300    301.94806   -111396.47   -110554.93     81.74807    202120.49   0.05274119 
   56400    288.91351    -111360.4   -110555.18     92.86046    202082.53  0.052751097 
   56500    294.46722   -111373.63   -110552.94    -164.6016     202062.3  0.052756379 
   56600    302.10525    -111391.2   -110549.21    28.004029    202035.23  0.052763449 
   56700    299.18831   -111378.21   -110544.35    90.718932    202003.06  0.052771852 
   56800    308.43265   -111400.28   -110540.66   -312.95144     201968.9  0.052780775 
   56900    293.81287    -111356.1   -110537.23   -519.64807    201914.65  0.052794958 
   57000    316.73487   -111417.42   -110534.67     82.57842    201840.11  0.052814456 
   57100    299.03829   -111365.82   -110532.38   -383.81924    201774.92  0.052831518 
   57200     296.9683   -111357.11   -110529.45   -140.75188     201716.5  0.052846819 
   57300    306.00704   -111380.12   -110527.26    88.013932    201681.33  0.052856035 
   57400    300.90403    -111366.3   -110527.67   -64.556747     201666.7  0.052859869 
   57500     302.4498   -111373.21   -110530.26    115.42733    201644.95  0.052865572 
   57600    297.39715   -111364.12   -110535.26    65.540652    201626.39  0.052870438 
   57700    309.16007   -111403.09   -110541.44   -0.3956643    201614.83  0.052873467 
   57800    296.90381   -111375.69    -110548.2   -249.84036    201591.09  0.052879696 
   57900    300.57851   -111392.52   -110554.79     96.93223    201549.85  0.052890515 
   58000    297.66875   -111390.41   -110560.79   -321.37802    201522.53  0.052897685 
   58100    299.84168   -111403.51   -110567.84    130.47898    201513.97  0.052899931 
   58200       305.61   -111427.66   -110575.91   -59.187352    201528.95  0.052896001 
   58300     286.2308   -111380.89   -110583.14   -152.61344    201534.62  0.052894512 
   58400    287.51486   -111388.01   -110586.69     397.4193    201535.01  0.052894409 
   58500    280.15522    -111368.7   -110587.89   -34.856206    201551.24   0.05289015 
   58600    295.95914   -111408.92   -110584.06   -53.161216    201565.77  0.052886337 
   58700    295.58639   -111399.07   -110575.25    633.45591    201573.05  0.052884427 
   58800    288.12091   -111364.92   -110561.92    336.13942    201578.06  0.052883113 
   58900    295.60378   -111367.83   -110543.97   -142.12827    201585.25  0.052881227 
   59000    298.89748   -111360.09   -110527.04      100.517    201600.29  0.052877281 
   59100     305.3911   -111366.93   -110515.79   -87.016609    201612.32  0.052874126 
   59200    300.05449   -111345.92   -110509.65   -233.94136    201614.57  0.052873537 
   59300    307.01058   -111363.29   -110507.63    172.01031    201602.48  0.052876707 
   59400    308.88141   -111368.86   -110507.99    150.90629    201573.84  0.052884221 
   59500    299.66514   -111346.04   -110510.86   -148.00794    201495.04  0.052904901 
   59600    304.66138   -111363.33   -110514.22   -35.793264    201381.18  0.052934815 
   59700    302.27354   -111361.38   -110518.93   -149.44043    201264.49  0.052965505 
   59800    304.32463   -111371.86   -110523.69   -151.76702    201140.37  0.052998188 
   59900    296.23791   -111355.03    -110529.4    5.5210525    200980.06  0.053040462 
   60000    291.12926   -111348.44   -110537.05    242.02635    200774.48  0.053094773 
   60100    289.62311   -111352.37   -110545.18   -191.52365    200541.95  0.053156336 
   60200    295.21685   -111375.57   -110552.78     225.7286    200311.31   0.05321754 
   60300    293.99824   -111379.44   -110560.05   -204.81091    200096.36  0.053274708 
   60400    286.42758   -111362.65   -110564.36   -475.60017    199891.98   0.05332918 
   60500    287.53337   -111368.05   -110566.68    328.80775    199680.26  0.053385726 
   60600    288.96126    -111371.5   -110566.15   -32.216723    199485.24  0.053437916 
   60700    301.18059   -111401.05   -110561.64    52.663303    199305.92  0.053485993 
   60800    292.49393   -111365.86   -110550.66   -389.47286    199121.83  0.053535443 
   60900    296.16343    -111359.5   -110534.07    152.10318    198912.46  0.053591793 
   61000    297.08895   -111344.06   -110516.06    113.07308    198703.88  0.053648047 
   61100    319.87437    -111393.8   -110502.29    705.26077     198536.6  0.053693251 
   61200    309.89912   -111357.94   -110494.23   -201.52048    198417.58  0.053725459 
   61300    312.56014   -111362.44   -110491.32    65.091314    198316.41  0.053752865 
   61400    300.57536   -111330.56   -110492.84   -307.50313    198234.09  0.053775187 
   61500    314.88127   -111374.13   -110496.54    65.801177    198137.86  0.053801305 
   61600    309.49804    -111365.4   -110502.81    -171.8934    198024.34  0.053832146 
   61700    303.83767   -111357.51    -110510.7     706.8832    197885.46  0.053869928 
   61800    298.69874    -111353.8    -110521.3    30.772642    197772.13  0.053900797 
   61900    301.94219    -111374.2   -110532.67    52.765251    197709.01  0.053918004 
   62000    305.49957   -111397.16   -110545.71   -172.91163    197704.51  0.053919233 
   62100    299.05469    -111389.8   -110556.32    69.489221       197726  0.053913371 
   62200    296.49694   -111388.58   -110562.23   -200.73013    197707.95  0.053918294 
   62300    285.12599   -111359.25   -110564.59    182.42046    197642.85  0.053936054 
   62400    294.83137   -111386.09   -110564.37   -188.35942    197577.92   0.05395378 
   62500    296.68178   -111388.92   -110562.05   -308.72429    197529.29  0.053967062 
   62600    286.43122   -111356.41   -110558.11   -334.31458    197506.05  0.053973411 
   62700    294.62912   -111375.24   -110554.09 -0.032224312     197472.9  0.053982473 
   62800    294.55266   -111371.44   -110550.51    223.61286    197411.99  0.053999127 
   62900    307.03981   -111402.54    -110546.8   -181.36524    197326.13  0.054022623 
   63000    293.85591   -111362.15   -110543.16    124.21557     197223.9  0.054050627 
   63100    297.89622   -111369.07   -110538.82   -51.476115    197130.56  0.054076219 
   63200    298.64038    -111366.7   -110534.37   -37.261413    197013.28   0.05410841 
   63300     297.2199   -111358.77    -110530.4   -21.141939    196872.42  0.054147125 
   63400    304.13764   -111375.27   -110527.62   -207.41777       196745  0.054182193 
   63500    308.27381   -111386.72   -110527.54   -585.50832    196666.77  0.054203744 
   63600    302.67141   -111374.37   -110530.81    139.03539    196608.45  0.054219823 
   63700    296.69776   -111365.58   -110538.67   -268.94514    196533.33  0.054240547 
   63800     296.1152   -111375.32   -110550.03    152.63454    196411.98   0.05427406 
   63900     295.1409    -111388.2   -110565.63   -295.21874    196284.31  0.054309359 
   64000    303.48329   -111427.41   -110581.58    340.12986    196192.17  0.054334866 
   64100    286.35934   -111392.85   -110594.75   -7.6957678    196149.72  0.054346625 
   64200      290.088   -111412.17   -110603.68    118.82562     196123.1  0.054354001 
   64300    283.21297   -111396.55   -110607.22   -116.96945    196108.68  0.054357998 
   64400    291.69981   -111417.94   -110604.96   -109.81897    196089.31  0.054363368 
   64500    285.02759   -111394.13   -110599.75    21.888778    196060.57  0.054371338 
   64600    297.08537   -111418.73   -110590.74    177.46023    196011.37  0.054384985 
   64700      292.005   -111392.03    -110578.2    -541.5844    195957.72  0.054399874 
   64800    289.54823   -111372.99   -110566.01    353.46129     195892.3   0.05441804 
   64900    293.23259   -111371.36    -110554.1    257.39814    195851.45  0.054429393 
   65000    298.11625   -111374.33   -110543.47    334.48004    195834.92  0.054433985 
   65100    306.31487   -111389.15   -110535.44    207.51851    195826.88  0.054436222 
   65200    296.79511   -111356.38    -110529.2   -654.89953    195820.21  0.054438074 
   65300    297.15535   -111352.05   -110523.86    473.23598    195808.61  0.054441301 
   65400    303.90003   -111366.62   -110519.63    -465.0005    195811.57  0.054440476 
   65500    303.29778   -111362.82   -110517.51   -382.63624    195812.18  0.054440308 
   65600    303.52787   -111363.51   -110517.56   -136.99483    195800.64  0.054443515 
   65700     302.8167   -111362.26   -110518.29    240.88091    195775.37  0.054450543 
   65800    294.53154   -111340.31   -110519.43    45.213014    195761.29  0.054454461 
   65900    299.76771   -111355.73   -110520.26   -225.24764    195780.11  0.054449227 
   66000    309.52683    -111383.9   -110521.23    108.60431    195801.04  0.054443404 
   66100    302.28687   -111366.95   -110524.46   -209.25543    195789.99  0.054446478 
   66200    308.88809   -111390.98   -110530.09     179.6931    195748.19  0.054458106 
   66300    305.48118      -111392   -110540.61    343.08219    195716.36  0.054466962 
   66400    291.83565   -111369.78   -110556.41   -199.78691    195705.31  0.054470035 
   66500    292.43397   -111387.41   -110572.38    130.66204    195689.43  0.054474456 
   66600    289.64789   -111391.88   -110584.61   -262.51018    195674.46  0.054478625 
   66700    290.67599   -111404.39   -110594.26    45.194194    195685.02  0.054475686 
   66800    290.51811   -111409.18   -110599.49    479.72124    195725.65  0.054464376 
   66900     292.8121   -111418.03   -110601.94   -378.06789    195785.37  0.054447763 
   67000      295.731   -111424.77   -110600.55   -404.04552    195832.54  0.054434648 
   67100    290.27366   -111404.84   -110595.83   -87.286654    195862.78  0.054426243 
   67200    296.59342   -111414.73    -110588.1   -8.6688455    195874.88   0.05442288 
   67300    290.07675   -111387.71   -110579.25   -237.61757    195866.21  0.054425291 
   67400    296.43627   -111393.87   -110567.69   -138.19435    195830.04  0.054435344 
   67500     299.6735   -111392.77   -110557.56    163.16523    195762.58    0.0544541 
   67600    298.74309   -111383.45   -110550.84    167.30823    195694.48  0.054473051 
   67700    311.86652   -111414.95   -110545.76   -271.99064    195633.74  0.054489965 
   67800    292.92976   -111358.41      -110542   -151.59328    195580.01  0.054504933 
   67900    288.32744   -111341.55   -110537.97   -18.732886    195548.11  0.054513823 
   68000    297.53704   -111362.67   -110533.42    373.10188    195532.55  0.054518164 
   68100    306.36969    -111384.9   -110531.03   -217.80082    195505.97  0.054525574 
   68200    305.93724   -111382.21   -110529.54   -83.959015    195434.73  0.054545451 
   68300    303.64094   -111374.73   -110528.46     17.18176    195352.71  0.054568351 
   68400    298.82926   -111360.31   -110527.45   -111.02369    195300.05  0.054583066 
   68500    300.68929   -111364.94    -110526.9    480.30692    195256.34  0.054595283 
   68600    294.99754   -111349.01   -110526.83   -533.13902    195225.59  0.054603882 
   68700    291.85062   -111341.65   -110528.24    101.36976    195185.35  0.054615142 
   68800    299.82345   -111367.26   -110531.63   -350.25118    195146.99  0.054625877 
   68900    304.59793   -111386.25   -110537.32   -377.18171    195088.83  0.054642162 
   69000    303.75351   -111393.83   -110547.25     151.8018    195004.73  0.054665726 
   69100     301.3338   -111401.38   -110561.55    251.02468    194932.94   0.05468586 
   69200    294.26615   -111397.89   -110577.75   -392.82313    194878.19  0.054701223 
   69300     284.2258   -111384.67   -110592.51   -14.108764    194831.94   0.05471421 
   69400    280.41446   -111384.38   -110602.85   -438.47101    194798.14  0.054723702 
   69500     291.8675   -111420.96   -110607.51   -18.301369    194774.46  0.054730355 
   69600    285.70192   -111404.97    -110608.7    124.82027    194750.58  0.054737067 
   69700    290.98123    -111416.3   -110605.32   -437.14624    194738.96  0.054740331 
   69800     291.3556   -111412.83   -110600.81   -228.67869    194703.87  0.054750197 
   69900    307.74972   -111450.19   -110592.47    760.64071    194635.49  0.054769434 
   70000    298.82741    -111415.7   -110582.85   -301.32368    194591.34  0.054781858 
   70100    301.04845   -111412.58   -110573.54    -217.6387    194545.64  0.054794727 
   70200    298.51184   -111396.38   -110564.41   -85.526594    194489.12  0.054810653 
   70300    312.93974      -111430   -110557.82   -282.05158    194401.13   0.05483546 
   70400    295.90339   -111378.47   -110553.77   -222.26218     194293.8  0.054865752 
   70500    297.87401   -111381.74   -110551.55    306.05702    194179.25  0.054898118 
   70600    309.39826   -111410.63   -110548.32    489.27775    194094.26  0.054922157 
   70700    306.65124   -111402.79   -110548.14     382.2367    194032.67  0.054939589 
   70800    304.34399   -111398.05   -110549.82    30.234835    193963.34  0.054959228 
   70900    302.03063   -111394.29   -110552.52    97.441409     193889.7  0.054980101 
   71000    297.23128   -111384.39   -110555.99    62.997392    193837.04  0.054995039 
   71100    306.62788    -111413.7   -110559.11    273.78423    193810.85  0.055002469 
   71200    300.76011   -111399.99   -110561.75   -82.451488       193809  0.055002995 
   71300    301.52688   -111404.85   -110564.47    123.47854    193829.67  0.054997129 
   71400    289.58483    -111374.5   -110567.41    14.327009    193892.93  0.054979185 
   71500    304.05474   -111417.32    -110569.9    -694.5464    193963.24  0.054959257 
   71600    303.66859   -111417.16   -110570.82   -5.9214231    194010.18   0.05494596 
   71700    290.54786   -111381.97   -110572.19    89.518716    194047.68  0.054935341 
   71800    286.34977   -111369.85   -110571.78   -261.69262    194101.76  0.054920036 
   71900    289.17017   -111376.19   -110570.26   -31.451254    194165.22  0.054902084 
   72000    285.25949   -111360.41   -110565.38   -173.69888    194246.73  0.054879046 
   72100    298.99343   -111391.41    -110558.1   -99.213317    194307.86  0.054861782 
   72200    297.51311    -111376.2   -110547.02   -246.62466    194358.52  0.054847481 
   72300    300.86317   -111372.07   -110533.55   -341.27194    194393.73  0.054837547 
   72400    307.34571   -111374.22   -110517.63     308.2944    194428.07  0.054827862 
   72500    298.04092   -111332.06   -110501.41   -445.51271    194494.45  0.054809149 
   72600    319.43856      -111378   -110487.71    234.83628    194560.85  0.054790444 
   72700    311.23421   -111347.77   -110480.35   -144.93355    194592.88  0.054781424 
   72800    312.76611   -111350.09   -110478.39   -267.13135    194609.08  0.054776865 
   72900    298.23772   -111311.87   -110480.67    127.56521    194616.61  0.054774746 
   73000     311.1581   -111351.94   -110484.72    8.7192604     194610.5  0.054776465 
   73100    307.28218   -111346.38   -110489.97    33.664866    194614.81  0.054775252 
   73200    310.98364   -111363.05   -110496.32   -31.774023    194621.89   0.05477326 
   73300     307.6617   -111361.14   -110503.67   -142.25523     194624.6  0.054772498 
   73400    302.85179    -111356.7   -110512.63    108.52889    194618.67  0.054774166 
   73500    296.17077   -111347.68   -110522.24   -112.28989    194614.99  0.054775203 
   73600    298.10978   -111362.53   -110531.68    401.04417    194584.59  0.054783758 
   73700    297.81457   -111371.49   -110541.47    107.62342    194563.08  0.054789816 
   73800    302.85907   -111393.53   -110549.45    286.17551    194555.76  0.054791879 
   73900    303.37954   -111401.24    -110555.7   -31.805745    194543.69  0.054795276 
   74000     298.5421   -111392.27   -110560.22    50.274789    194523.84  0.054800868 
   74100    302.38975    -111406.8   -110564.02    299.14077    194505.71  0.054805977 
   74200    290.77617   -111375.49   -110565.08   -87.391002    194491.88  0.054809874 
   74300    302.36355   -111407.54   -110564.83    209.10898    194475.48  0.054814495 
   74400    294.97563   -111385.24   -110563.12    382.85573    194454.43  0.054820429 
   74500    296.26128   -111384.55   -110558.85   -100.08975    194433.62  0.054826297 
   74600    309.64353   -111414.97   -110551.97   -29.434211    194415.42   0.05483143 
   74700    295.30413   -111364.13    -110541.1   -400.90525    194412.18  0.054832343 
   74800    307.88838   -111382.57   -110524.47    32.623876    194412.51   0.05483225 
   74900    309.78443    -111369.1   -110505.71    527.30718    194433.25  0.054826402 
   75000    299.22017   -111324.53   -110490.59     106.4257    194488.09  0.054810942 
   75100    312.63662   -111351.52   -110480.19   -264.98135    194550.52  0.054793354 
   75200    311.76945   -111345.69   -110476.77   -137.01282    194607.79   0.05477723 
   75300    318.27115   -111365.43   -110478.39    205.56874    194645.54  0.054766606 
   75400     315.8524   -111365.29   -110484.99   -572.27733     194672.4  0.054759049 
   75500    310.31753   -111359.03   -110494.15   -309.36996    194693.71  0.054753054 
   75600      311.877   -111372.79   -110503.57   -358.54701    194726.82  0.054743745 
   75700    301.67779   -111353.57   -110512.78   -228.84385    194741.22  0.054739697 
   75800     299.7207   -111354.64    -110519.3   -167.67155    194731.13  0.054742533 
   75900    304.77022   -111374.64   -110525.22    110.99234     194707.6   0.05474915 
   76000    295.53544   -111353.31   -110529.64    101.46021     194686.2  0.054755167 
   76100    298.07997   -111364.56   -110533.79   -156.36779    194682.36  0.054756248 
   76200    294.84102   -111357.54    -110535.8   -503.21989       194662  0.054761973 
   76300    309.36963   -111400.51   -110538.28    207.24676    194638.38  0.054768618 
   76400    313.65509   -111415.65   -110541.48    221.47542    194631.59  0.054770531 
   76500    297.10452   -111372.87   -110544.82   -298.73732    194646.86  0.054766234 
   76600    296.37061   -111373.31   -110547.31     512.2665    194642.88  0.054767354 
   76700    293.78542   -111368.95   -110550.16    181.88705    194602.34  0.054778761 
   76800    295.30243   -111374.99   -110551.97    58.816786    194553.78  0.054792435 
   76900    279.87416   -111332.51   -110552.48    323.21873    194531.22   0.05479879 
   77000    303.70339   -111396.69   -110550.25     324.8938    194547.66  0.054794158 
   77100    300.20712   -111381.51   -110544.81   -242.45743    194567.73  0.054788507 
   77200    310.38724   -111400.88   -110535.81    509.10713    194579.81  0.054785105 
   77300    303.36083   -111368.19    -110522.7   -607.66362    194632.74  0.054770205 
   77400    297.75744   -111337.13   -110507.26   -299.43629     194696.2  0.054752355 
   77500    307.27646   -111348.49   -110492.09    112.21441    194745.23  0.054738568 
   77600    313.07678   -111353.09   -110480.53   -335.78045    194768.17  0.054732122 
   77700     320.4517   -111366.31   -110473.19    310.94751    194757.54  0.054735109 
   77800    306.18316   -111323.57   -110470.22   -380.64873    194751.12  0.054736915 
   77900    300.85211   -111310.45   -110471.96   -6.7711125    194744.16  0.054738871 
   78000    310.71719   -111342.09    -110476.1    27.077566    194760.36  0.054734317 
   78100    313.04484   -111356.49   -110484.02    74.102766    194810.95  0.054720105 
   78200    307.83215   -111353.43   -110495.48   -447.83387    194867.03  0.054704356 
   78300    302.61995   -111353.67   -110510.26     48.32515    194895.33  0.054696412 
   78400    305.13045    -111373.5   -110523.08   -134.15713    194915.16  0.054690849 
   78500    293.29064   -111350.99   -110533.58    17.643088    194925.83  0.054687855 
   78600    297.47165   -111368.16   -110539.09      -390.91    194931.59  0.054686237 
   78700     294.8093   -111364.93   -110543.28   -31.368401    194932.37   0.05468602 
   78800    303.48017   -111390.93   -110545.12   -539.16367    194934.67  0.054685373 
   78900    298.55998   -111378.75   -110546.65    263.95644    194911.32  0.054691926 
   79000    308.71507    -111407.7    -110547.3   -237.17609    194848.99   0.05470942 
   79100    296.78874   -111375.56    -110548.4    556.11587    194764.63  0.054733117 
   79200    290.34732   -111357.87   -110548.65   -59.396901    194696.01  0.054752407 
   79300    288.49296   -111349.65    -110545.6    131.22637    194648.69  0.054765719 
   79400    286.65869   -111339.27   -110540.34    -295.4278    194569.01  0.054788147 
   79500    288.82653   -111337.11   -110532.13    80.282904    194444.12  0.054823337 
   79600    304.05121   -111368.38   -110520.98   -128.38281    194305.83  0.054862355 
   79700    306.58257   -111363.24   -110508.78   -339.26092    194159.72   0.05490364 
   79800    299.38911   -111331.96   -110497.54    66.925409    193991.87  0.054951146 
   79900    307.41269   -111344.69   -110487.91   -6.2567286    193831.35  0.054996652 
   80000    312.12462   -111350.42   -110480.51    7.3036106    193692.59  0.055036052 
   80100    314.24055   -111351.82   -110476.01   -445.39998    193579.86  0.055068103 
   80200    313.94971   -111350.99   -110475.99    164.73442    193486.17  0.055094766 
   80300    306.34733   -111332.61    -110478.8   -420.81278    193375.63  0.055126259 
   80400    311.11757   -111351.65   -110484.55   -190.24218    193170.44  0.055184816 
   80500    308.36924   -111349.12   -110489.68    218.14614    192940.85  0.055250483 
   80600    297.00785   -111321.24   -110493.46    -94.01945    192752.63  0.055304435 
   80700    306.28075   -111350.41   -110496.79    322.08057    192601.06  0.055347957 
   80800    307.18656   -111356.76   -110500.61   -135.75841    192457.19  0.055389332 
   80900     308.9155   -111366.06    -110505.1    417.64047     192293.1  0.055436599 
   81000    301.49028   -111352.74   -110512.47    287.52295    192125.01    0.0554851 
   81100    302.52323   -111363.18   -110520.03    60.523068    191978.29  0.055527506 
   81200    309.14684   -111390.16   -110528.55   -185.06471    191833.39  0.055569446 
   81300    312.46119   -111408.81   -110537.97    72.060007    191683.72  0.055612838 
   81400    293.37406   -111365.45    -110547.8    59.439062    191533.93  0.055656327 
   81500    296.20832    -111382.4   -110556.85   -133.79796    191389.18  0.055698422 
   81600    291.57915    -111377.4   -110564.76   -285.38989    191239.68  0.055741963 
   81700    297.95491    -111401.1   -110570.68     689.7593     191086.6  0.055786618 
   81800    289.70929   -111380.79   -110573.36   -71.576591    190968.65  0.055821075 
   81900     302.8858    -111416.1   -110571.94     -115.899    190867.98  0.055850517 
   82000    296.22119   -111394.94   -110569.35    90.135651    190813.11  0.055866577 
   82100    288.69458   -111368.59   -110563.98    133.68868    190768.39  0.055879674 
   82200    291.00249   -111366.74    -110555.7    176.93024    190720.91  0.055893586 
   82300    294.83989   -111365.13    -110543.4    -318.4262    190643.26  0.055916349 
   82400    300.06766   -111364.05   -110527.75    -232.5952    190536.12  0.055947794 
   82500    307.78421    -111369.4   -110511.59    50.729567    190402.93  0.055986929 
   82600    308.05575   -111358.56   -110499.99   -27.478866    190290.98  0.056019867 
   82700    313.89484   -111368.44   -110493.59    186.06189    190179.46  0.056052716 
   82800    309.54213   -111354.33   -110491.61   -303.92132    190087.86  0.056079728 
   82900    298.31355   -111324.55   -110493.13    186.78552     189975.2  0.056112984 
   83000    311.01774    -111363.5   -110496.67    120.04708    189865.64  0.056145362 
   83100     305.6377   -111352.75   -110500.92   -124.38236     189765.6  0.056174962 
   83200    313.68169   -111382.69   -110508.45    217.30472    189679.05  0.056200593 
   83300    312.64722   -111388.09   -110516.73   -70.164907    189623.07  0.056217187 
   83400     311.8646   -111395.49   -110526.31    103.79857    189574.71  0.056231528 
   83500    303.79975    -111383.1   -110536.39   -344.01426     189536.8  0.056242774 
   83600    304.80794   -111397.32    -110547.8    395.71632    189494.74  0.056255259 
   83700    290.59471   -111367.23   -110557.33    269.60469    189459.84  0.056265621 
   83800    291.40266   -111378.26   -110566.11   -89.919464    189421.32   0.05627706 
   83900    301.14051   -111410.57   -110571.28    116.34983    189365.54  0.056293638 
   84000    306.20386   -111427.28   -110573.87    115.79095    189270.88  0.056321795 
   84100    305.60643   -111425.92   -110574.18     185.6781    189130.04  0.056363735 
   84200    304.72468   -111421.96   -110572.68   -28.409718    188967.27  0.056412285 
   84300    290.76865   -111380.62   -110570.23   -45.444826    188813.81  0.056458133 
   84400    294.46644   -111386.25   -110565.55    176.79451    188670.37  0.056501056 
   84500    293.61151   -111375.81    -110557.5    686.29703    188534.02  0.056541918 
   84600    305.60886      -111399   -110547.25   -232.30918    188411.52   0.05657868 
   84700    306.98011   -111391.44   -110535.87   -289.31088    188272.21  0.056620545 
   84800    310.61056   -111389.88   -110524.19    -215.9091    188089.94  0.056675416 
   84900    301.26361   -111353.76   -110514.12    448.95111    187905.15   0.05673115 
   85000    308.80616   -111367.21   -110506.55   -52.259438    187736.87  0.056782003 
   85100    308.44477   -111360.17   -110500.52    429.78906    187617.67  0.056818078 
   85200    315.95908   -111376.46   -110495.86    156.14296    187545.07  0.056840074 
   85300    311.23721    -111360.4   -110492.97    -210.4186     187503.6  0.056852644 
   85400    298.36313   -111321.74   -110490.18    182.85848    187470.84   0.05686258 
   85500    312.70338    -111360.6   -110489.08    400.66108    187397.36  0.056884876 
   85600    305.40478   -111339.36   -110488.18    -375.5159    187303.74  0.056913307 
   85700    310.88739   -111357.17   -110490.71    268.72622    187193.66  0.056946777 
   85800    302.25683   -111338.49   -110496.08    -196.8308    187083.72   0.05698024 
   85900    309.40713   -111367.46   -110505.12     83.21297    186968.79  0.057015266 
   86000    296.56404   -111342.57   -110516.03    251.42571     186854.1  0.057050263 
   86100    303.82544   -111375.55   -110528.77   -47.565053    186730.25  0.057088102 
   86200     302.8836   -111385.98   -110541.83   -545.36187    186598.38  0.057128447 
   86300    295.33673    -111376.2   -110553.08   -76.234112    186432.14  0.057179387 
   86400    299.33678   -111396.46   -110562.19    217.76562    186231.14  0.057241101 
   86500    299.30956   -111405.23   -110571.04    230.14171    186007.77  0.057309839 
   86600    304.61037   -111427.22   -110578.25    388.19182    185779.66  0.057380209 
   86700    297.94564   -111413.05   -110582.66    -161.3576    185590.19  0.057438786 
   86800    284.62676   -111377.96   -110584.68   -26.008456    185427.53  0.057489172 
   86900    294.14358   -111403.23   -110583.44   -27.848762    185275.19  0.057536442 
   87000    287.01827   -111379.51   -110579.57    117.99325    185136.24  0.057579626 
   87100    300.11739   -111407.96   -110571.52    235.48881     184991.1  0.057624801 
   87200    305.10565   -111411.57   -110561.22     248.1034    184824.36  0.057676788 
   87300    301.57091   -111389.53   -110549.04    21.173467    184641.02   0.05773406 
   87400    307.47822   -111393.79   -110536.83    182.72184     184488.4   0.05778182 
   87500    305.58103   -111379.84   -110528.17    303.78479    184370.36  0.057818812 
   87600    315.00565   -111400.17   -110522.23     260.3472    184261.04  0.057853117 
   87700     305.9484   -111372.18   -110519.48     -25.4705    184150.33  0.057887899 
   87800    303.96546   -111365.34   -110518.17    26.040499    184042.95  0.057921672 
   87900    298.51256   -111350.62   -110518.65   -115.89627    183935.36  0.057955552 
   88000    302.89399   -111364.48    -110520.3    271.87527    183824.71  0.057990437 
   88100    299.42792   -111358.06   -110523.54   -8.0487508    183730.37  0.058020213 
   88200     302.8231      -111372   -110528.01   -191.74075    183633.74  0.058050745 
   88300    298.47138   -111368.13   -110536.27    11.647862    183559.82  0.058074123 
   88400    296.58807   -111376.07   -110549.46    410.31552     183516.6  0.058087798 
   88500    287.13045   -111366.69   -110566.44   -185.59931    183476.12  0.058100614 
   88600    289.34909   -111389.41   -110582.98   -305.35261    183400.47   0.05812458 
[...]
  978700    299.97267   -111570.85   -110734.81   -996.70842    9265.9189    1.1504607 
  978800    304.58439   -111573.88   -110724.98   -2898.4794    9266.9614    1.1503313 
  978900    317.06691   -111599.45   -110715.76   -9659.0667    9267.5061    1.1502637 
  979000    315.89915   -111590.82   -110710.39    10839.146    9267.7127     1.150238 
  979100     305.2696   -111557.74   -110706.94    12520.754     9269.248    1.1500475 
  979200    304.28675   -111555.33   -110707.26   -2427.8553    9271.0822      1.14982 
  979300    305.35779   -111561.36   -110710.31   -9325.3975    9272.7741    1.1496102 
  979400    309.53746    -111579.2    -110716.5   -3856.8801    9274.4397    1.1494037 
  979500    289.20091   -111535.53   -110729.51   -3881.3749    9275.6736    1.1492508 
  979600    297.39877   -111574.61   -110745.74    1139.8637    9277.1336    1.1490699 
  979700    292.19468   -111577.54   -110763.17    705.02976    9279.1142    1.1488247 
  979800    299.85623   -111612.59   -110776.88    10431.849    9281.7498    1.1484985 
  979900    300.46995   -111621.96   -110784.54   -3279.2873    9285.5542    1.1480279 
  980000    302.98192   -111632.45   -110788.02   -3225.9454    9290.7881    1.1473812 
  980100    298.48653   -111620.51   -110788.61    6508.4362    9296.9882     1.146616 
  980200    297.83826   -111618.23   -110788.14   -6266.2502    9303.8064    1.1457757 
  980300    293.68955   -111605.61   -110787.08   -782.70589    9309.3535     1.145093 
  980400    300.53835   -111622.13   -110784.51   -167.60284    9312.7866    1.1446709 
  980500    291.13957   -111592.11   -110780.69   -4785.8146    9315.4683    1.1443413 
  980600    288.92824   -111579.96    -110774.7    5176.2501    9317.9803    1.1440328 
  980700    290.01086   -111575.07   -110766.79   -14876.922    9321.7631    1.1435686 
  980800    287.56159   -111561.27   -110759.82    2753.2829    9324.7687       1.1432 
  980900    291.72684   -111565.42   -110752.36    -11041.61    9326.6121     1.142974 
  981000    299.74506   -111579.24   -110743.84    1431.7976    9326.3983    1.1430002 
  981100    305.83789   -111589.54   -110737.15    15225.791    9325.5297    1.1431067 
  981200    288.60899   -111536.04   -110731.67    338.75939    9324.8183    1.1431939 
  981300    303.02791   -111570.48   -110725.92    3018.7482    9323.8848    1.1433083 
  981400    302.37779    -111565.2   -110722.46    1447.4513    9321.6161    1.1435866 
  981500    305.16623   -111571.59   -110721.08    1524.5426    9319.1347    1.1438911 
  981600    306.28151   -111574.96   -110721.34   -2064.9938    9316.3663     1.144231 
  981700     309.0309   -111583.95   -110722.66   -2491.5525    9313.3968    1.1445959 
  981800    305.28185   -111574.89   -110724.05   -2921.9437    9309.6901    1.1450516 
  981900    298.09593    -111558.2   -110727.39    2313.8411    9305.3224     1.145589 
  982000     298.7258   -111562.35   -110729.78     2395.527    9299.6769    1.1462845 
  982100    306.69604   -111586.27   -110731.49    6758.0248    9292.8096    1.1471316 
  982200    304.49657   -111581.86   -110733.21   -744.39711     9285.316    1.1480574 
  982300    294.59419   -111557.26   -110736.21   -8236.8975    9277.2845    1.1490512 
  982400    309.69121   -111604.22   -110741.09    13489.013    9270.1351    1.1499374 
  982500    293.03822   -111565.71      -110749   -1267.1677    9263.1614    1.1508032 
  982600    295.29653   -111581.22   -110758.21    7921.7449    9254.7674    1.1518469 
  982700     294.4291      -111588   -110767.41    4785.5166    9246.2641    1.1529062 
  982800    303.27237   -111620.57   -110775.33   -445.84599    9239.9281    1.1536968 
  982900    300.85442   -111620.94   -110782.45    6190.0612    9233.9558     1.154443 
  983000     294.9098   -111611.03    -110789.1   -11381.739    9226.4034    1.1553879 
  983100    293.40208   -111610.84   -110793.11    -7405.748    9216.9724    1.1565702 
  983200    289.62653   -111600.31   -110793.11    13587.916    9208.2212    1.1576693 
  983300    293.23745   -111607.18   -110789.91    103.78066    9202.6437     1.158371 
  983400     292.6187   -111598.29   -110782.74    -2311.102    9197.4151    1.1590295 
  983500    298.94352   -111602.07    -110768.9    5677.3096    9191.0916    1.1598269 
  983600    302.66127   -111591.34    -110747.8   -352.31358    9183.2081    1.1608226 
  983700    316.90946    -111608.9   -110725.65   -1596.6202    9174.8101    1.1618851 
  983800    315.13555   -111590.28   -110711.98    3786.8488    9166.3713    1.1629548 
  983900    307.18466   -111561.13   -110704.99   -2778.6859    9158.6461    1.1639357 
  984000    307.02806   -111556.84   -110701.14   -6065.9556    9151.8893     1.164795 
  984100    305.35331   -111551.16   -110700.12   -5367.1146    9144.7438    1.1657052 
  984200    301.34723   -111541.49   -110701.62    2472.4654    9137.7272    1.1666003 
  984300    305.14185   -111555.84   -110705.39   -2577.0933    9131.5221     1.167393 
  984400    302.39109   -111555.31   -110712.53    611.69864    9126.8806    1.1679867 
  984500    300.10272   -111558.07   -110721.67     1065.889    9123.4125    1.1684307 
  984600    316.56947   -111613.63   -110731.34   -1040.4329    9121.3331    1.1686971 
  984700    306.29868   -111596.51   -110742.84    5881.6453    9119.8653    1.1688852 
  984800    309.81979   -111616.72   -110753.24   -7448.8679    9119.3757    1.1689479 
  984900    292.71668   -111579.82      -110764    10607.248    9119.2612    1.1689626 
  985000    296.54807   -111597.84   -110771.34   -5602.3671     9121.089    1.1687284 
  985100    294.35027   -111597.15   -110776.78    474.19549    9123.8482    1.1683749 
  985200    294.78955   -111599.41   -110777.82    8159.1753    9127.7103    1.1678806 
  985300    302.34979    -111620.6   -110777.93   -4146.6387    9132.3868    1.1672825 
  985400     288.2977   -111581.52   -110778.02    3004.5107    9138.0038     1.166565 
  985500    292.51049   -111592.57   -110777.32    -1780.937    9144.6935    1.1657116 
  985600    298.77248   -111609.62   -110776.92    1050.5731    9150.4408    1.1649794 
  985700    295.26633   -111597.59   -110774.67    4184.1245    9155.8589      1.16429 
  985800    290.09967   -111580.19   -110771.67   -4724.5181    9161.9155    1.1635204 
  985900    289.70444   -111573.26   -110765.83    7480.9579    9169.3429    1.1625779 
  986000    288.73854   -111562.22   -110757.48    5564.6973     9178.179    1.1614586 
  986100    301.36664   -111588.53   -110748.61   -3823.2243    9187.4323    1.1602889 
  986200     297.5039   -111570.06    -110740.9    554.49138    9196.9537    1.1590876 
  986300    295.16788    -111557.1   -110734.45   -10085.377    9205.6633     1.157991 
  986400    298.87918   -111564.05   -110731.06      8983.54    9212.6605    1.1571115 
  986500    299.19423   -111562.66   -110728.79    16377.855    9219.0445    1.1563102 
  986600    306.07433   -111581.36   -110728.31    11013.863    9226.0828    1.1554281 
  986700    301.11414   -111567.48   -110728.25    -10596.55    9235.0891    1.1543013 
  986800    296.37658   -111553.82    -110727.8    5610.9576    9243.8848     1.153203 
  986900    303.71407   -111572.72   -110726.25    4665.3128    9251.8831     1.152206 
  987000    305.88878   -111579.03    -110726.5    -7893.963    9259.1224    1.1513052 
  987100    304.19775   -111575.47   -110727.65   -7827.1911    9265.4735     1.150516 
  987200    300.21408   -111566.09   -110729.37     11918.11    9272.1617    1.1496861 
  987300    307.18086   -111587.56   -110731.43    -6081.076     9278.202    1.1489376 
  987400    307.45785   -111592.85   -110735.95    644.57794    9282.2781    1.1484331 
  987500    304.50182   -111589.58   -110740.92    1127.9395    9285.9851    1.1479746 
  987600    302.36326   -111590.32   -110747.61    3429.5839     9290.367    1.1474332 
  987700    286.33282   -111551.29   -110753.27    126.84808    9296.0151     1.146736 
  987800    288.76447   -111562.61   -110757.81   -8975.6943    9301.8023    1.1460226 
  987900    304.27347   -111608.34   -110760.31   -3818.7564    9306.4891    1.1454454 
  988000    300.72296   -111602.51   -110764.38    5124.1963    9310.3648    1.1449686 
  988100    294.46977   -111590.12   -110769.42    2820.3116    9314.1359     1.144505 
  988200    295.20078   -111598.19   -110775.44    5609.3127     9317.019    1.1441509 
  988300    288.17705   -111584.29   -110781.12   -8356.3662    9318.9448    1.1439144 
  988400    288.24039   -111589.84   -110786.49    8234.8373    9320.5955    1.1437118 
  988500    291.48105   -111601.04   -110788.67   -6028.4051    9322.6163    1.1434639 
  988600     298.2786   -111620.65   -110789.33    6188.3921    9324.3527     1.143251 
  988700    296.15269   -111614.03   -110788.64    2756.7387    9325.2555    1.1431403 
  988800    288.17342   -111588.58   -110785.43   -2346.2036    9325.3382    1.1431302 
  988900    303.50299   -111624.53   -110778.65    4065.9814    9324.6153    1.1432188 
  989000    297.16822   -111595.93    -110767.7   -8774.7934    9323.8114    1.1433174 
  989100     301.5679   -111595.84   -110755.36    981.21094    9321.9225     1.143549 
  989200    298.67382   -111575.05   -110742.63    4664.1577    9319.2307    1.1438793 
  989300    303.45581   -111577.15    -110731.4    -9986.392    9315.8688    1.1442921 
  989400    306.75166   -111577.36   -110722.43    3148.7545    9311.8826     1.144782 
  989500    298.98423   -111548.44   -110715.15    2466.0477    9308.1802    1.1452373 
  989600    313.55563   -111583.51   -110709.61   -2293.4371    9304.9857    1.1456305 
  989700    301.50946   -111546.79   -110706.47    271.41753    9301.7335     1.146031 
  989800    303.86802   -111552.82   -110705.92    4550.6221    9297.4471    1.1465594 
  989900    302.49064   -111551.75   -110708.69     6294.051     9292.719    1.1471428 
  990000    302.62937   -111556.58   -110713.13   -2036.3107    9287.8019    1.1477501 
  990100    301.85368   -111560.76   -110719.48   -2894.7094    9282.7883      1.14837 
  990200    300.56726   -111566.25   -110728.55    6011.1091    9278.2188    1.1489355 
  990300    305.86172   -111594.38   -110741.92    -3167.163    9273.8747    1.1494737 
  990400    304.96797   -111608.12   -110758.16   -3206.6748    9269.6027    1.1500035 
  990500    301.33515    -111614.3   -110774.46    4953.5024    9266.1238    1.1504352 
  990600    290.24252   -111595.04   -110786.12    4448.9077    9263.9257    1.1507082 
  990700    295.28454   -111615.92   -110792.95   -2062.2334     9262.552    1.1508789 
  990800    292.75684   -111610.59   -110794.66   -3363.9154     9260.974     1.151075 
  990900    289.27507   -111600.03   -110793.81   -4803.3198    9257.8741    1.1514604 
  991000    281.18502   -111574.73   -110791.05     9462.411    9254.3626    1.1518973 
  991100    297.81491   -111616.99   -110786.96   -2662.4344    9252.1964     1.152167 
  991200    295.74801    -111605.7   -110781.44    5768.8265    9249.6227    1.1524876 
  991300    308.72204   -111635.59   -110775.16   -5905.0913      9246.06    1.1529317 
  991400    294.78848   -111591.05   -110769.46    -1188.329     9242.936    1.1533213 
  991500    304.76512   -111613.01   -110763.61    14296.943    9242.3133     1.153399 
  991600    301.19703   -111596.47   -110757.01    3828.6532    9243.2682    1.1532799 
  991700    296.23912   -111577.26   -110751.62   -10030.913      9245.21    1.1530377 
  991800    305.25333   -111598.25   -110747.49    6379.8651    9247.8303     1.152711 
  991900    301.75816   -111584.47   -110743.46    -1652.908     9251.453    1.1522596 
  992000     291.0406   -111550.62   -110739.47    -11114.15    9254.9599     1.151823 
  992100    301.69433    -111574.6   -110733.76   -1347.4751    9258.7416    1.1513525 
  992200    300.25228   -111563.48   -110726.66   -6925.6773    9262.5677    1.1508769 
  992300    304.23393   -111566.55   -110718.63   -3099.5682     9265.387    1.1505267 
  992400    304.47214   -111559.14   -110710.55    2118.9925    9266.6558    1.1503692 
  992500    305.41027   -111553.05   -110701.85   -3512.4663    9267.3724    1.1502802 
  992600    304.68674    -111540.4   -110691.22    2238.9398    9268.8885    1.1500921 
  992700     311.0794    -111548.6   -110681.61    3655.9061    9270.7839     1.149857 
  992800    314.58304   -111549.96    -110673.2   -2892.8494    9272.2226    1.1496785 
  992900    309.97607   -111535.46   -110671.54     3674.571    9271.4232    1.1497777 
  993000    303.21119   -111519.85   -110674.78   -2309.4754    9268.1323    1.1501859 
  993100    312.23814   -111553.27   -110683.05    4721.8099    9263.5948    1.1507493 
  993200    308.98583   -111559.16      -110698   -3510.7541      9259.04    1.1513154 
  993300    310.66005   -111582.94   -110717.11    396.47243    9252.7336    1.1521001 
  993400    303.14965   -111578.61   -110733.72    2286.6702    9246.5532    1.1528702 
  993500    298.13999   -111574.61   -110743.68    13203.926     9241.173    1.1535414 
  993600    293.81923   -111568.91   -110750.02   -2913.8023    9237.2699    1.1540288 
  993700    300.97445   -111592.79   -110753.96     10482.49    9233.4901    1.1545012 
  993800    298.35713   -111588.55   -110757.02   -4382.2416    9229.3783    1.1550155 
  993900    299.52046   -111594.76   -110759.98    -6250.214    9225.4076    1.1555127 
  994000    292.20719   -111575.25   -110760.85    11113.941    9221.7211    1.1559746 
  994100    294.18473   -111580.98   -110761.07   -3260.4815    9217.5177    1.1565018 
  994200    299.80902   -111598.34   -110762.76   -6819.0839    9212.7196    1.1571041 
  994300    289.86887   -111570.88      -110763   -4585.2904    9207.2733    1.1577885 
  994400     297.5223   -111594.19   -110764.98   -1206.2062    9202.4917    1.1583901 
  994500     307.5238   -111624.02   -110766.94   -8722.8421    9198.0271    1.1589524 
  994600    294.93721   -111590.02   -110768.02   -1404.6633    9192.9871    1.1595878 
  994700    305.07516   -111620.33   -110770.07   -6116.9191     9187.748     1.160249 
  994800    292.43249   -111588.61   -110773.59   -13047.446    9183.7805    1.1607502 
  994900    305.10825   -111627.16    -110776.8   -1040.3149    9181.1878     1.161078 
  995000    296.46146   -111605.13   -110778.88   -2161.1919    9179.7359    1.1612617 
  995100    299.91633   -111616.03   -110780.15   -4435.2007    9179.2714    1.1613204 
  995200    283.39194   -111569.63    -110779.8    14576.734    9177.7411    1.1615141 
  995300    295.67304   -111603.43   -110779.38   -9276.1524    9176.5958     1.161659 
  995400    307.28761    -111632.5   -110776.07    15221.925     9175.807    1.1617589 
  995500    291.93121   -111584.81   -110771.18    -2463.266    9175.2717    1.1618267 
  995600    298.31249   -111595.48   -110764.07    5822.7014    9173.6101    1.1620371 
  995700    285.82498    -111551.2   -110754.59   -2137.9048    9171.8108    1.1622651 
  995800     302.3422   -111585.16   -110742.51   -3112.9252    9171.5306    1.1623006 
  995900    306.62829   -111584.55   -110729.96   -4157.5444    9170.5865    1.1624202 
  996000    306.13909   -111572.01   -110718.78   -1601.0783    9168.0144    1.1627464 
  996100    307.57059   -111565.69   -110708.48    5725.5788    9164.9932    1.1631297 
  996200    304.95036   -111552.84   -110702.93   -5204.0485    9161.2876    1.1636001 
  996300    308.39687   -111561.01   -110701.49   -12298.799    9156.7478     1.164177 
  996400     295.3187   -111527.36   -110704.29    8316.8767     9152.676    1.1646949 
  996500    308.43154   -111568.73   -110709.11   -6076.4217    9150.0532    1.1650288 
  996600    310.41334   -111580.88   -110715.74   -1093.8937    9147.2613    1.1653844 
  996700    309.29975   -111588.01   -110725.97     6178.509    9143.2711     1.165893 
  996800    317.32303   -111622.92   -110738.52    2412.7302    9137.2081    1.1666666 
  996900    302.90942    -111595.5   -110751.28    2446.8316    9129.9676    1.1675918 
  997000    294.65015   -111581.67   -110760.47    2750.6292    9123.9837    1.1683576 
  997100    296.90413   -111593.09    -110765.6    9103.2719    9121.1315    1.1687229 
  997200     300.0162   -111603.69   -110767.53   -5873.9499    9120.8388    1.1687604 
  997300    297.28995   -111595.89   -110767.32    6534.7695    9120.4109    1.1688153 
  997400    304.58208   -111614.73   -110765.84   -967.55012     9118.672    1.1690381 
  997500    300.63517   -111601.94   -110764.05   -737.74087     9117.091    1.1692409 
  997600    301.86168   -111604.58   -110763.27   -3862.7231    9117.6557    1.1691684 
  997700    295.79816   -111587.03   -110762.62   -2684.0029     9119.155    1.1689762 
  997800    296.77234   -111588.34   -110761.22   -3145.0059    9119.5283    1.1689284 
  997900    295.18404   -111581.03   -110758.34   -1879.1534    9119.1715    1.1689741 
  998000    299.26802   -111586.86   -110752.78    2077.3546    9120.1337    1.1688508 
  998100    290.01626   -111554.26   -110745.97    -3648.866    9122.3873     1.168562 
  998200    308.27834   -111597.16   -110737.97    11500.064    9124.1577    1.1683353 
  998300    303.66992   -111575.85    -110729.5   -6558.3033    9126.4724     1.168039 
  998400    298.01803   -111550.45   -110719.85   -5083.9133     9130.467    1.1675279 
  998500    298.22918   -111542.32   -110711.14    5107.0669    9136.5402    1.1667519 
  998600    309.98695   -111566.63   -110702.68   -2147.6745    9143.4142    1.1658747 
  998700    309.94846   -111559.94   -110696.09   -10431.102    9149.5623    1.1650913 
  998800     323.4343   -111592.53    -110691.1    3064.2905    9154.2132    1.1644993 
  998900     313.3761   -111559.81   -110686.42   -897.20951    9158.8377    1.1639114 
  999000    310.46549   -111552.67   -110687.38   -1312.3138    9164.4963    1.1631927 
  999100    301.40878   -111534.37   -110694.33    2588.1177    9171.1196    1.1623527 
  999200    301.38694   -111548.48   -110708.49   -5578.6804    9177.9985    1.1614815 
  999300     302.9933   -111571.19   -110726.73    3397.6315    9185.1009    1.1605834 
  999400    295.27856   -111566.17   -110743.21   -1140.8128    9193.4633    1.1595277 
  999500    300.61609   -111592.66   -110754.82     774.8027    9201.8637    1.1584692 
  999600    289.48563   -111570.03   -110763.22   -2988.8452    9209.7377    1.1574787 
  999700    305.48675   -111618.74   -110767.33   -316.55196    9216.4504    1.1566357 
  999800    294.30842    -111589.7   -110769.44   -3531.5533    9223.2612    1.1557816 
  999900     293.9546   -111589.34   -110770.07   -4432.7989      9231.07    1.1548039 
 1000000    298.10846   -111598.24    -110767.4    445.00761     9239.964    1.1536923 
Loop time of 108591 on 1 procs for 1000000 steps with 936 atoms

Performance: 0.199 ns/day, 120.657 hours/ns, 9.209 timesteps/s
99.9% CPU use with 1 MPI tasks x no OpenMP threads

MPI task timing breakdown:
Section |  min time  |  avg time  |  max time  |%varavg| %total
---------------------------------------------------------------
Pair    | 89437      | 89437      | 89437      |   0.0 | 82.36
Neigh   | 381.46     | 381.46     | 381.46     |   0.0 |  0.35
Comm    | 23.412     | 23.412     | 23.412     |   0.0 |  0.02
Output  | 1.5912     | 1.5912     | 1.5912     |   0.0 |  0.00
Modify  | 18747      | 18747      | 18747      |   0.0 | 17.26
Other   |            | 1.033      |            |       |  0.00

Nlocal:    936 ave 936 max 936 min
Histogram: 1 0 0 0 0 0 0 0 0 0
Nghost:    8819 ave 8819 max 8819 min
Histogram: 1 0 0 0 0 0 0 0 0 0
Neighs:    603671 ave 603671 max 603671 min
Histogram: 1 0 0 0 0 0 0 0 0 0

Total # of neighbors = 603671
Ave neighs/atom = 644.948
Neighbor list builds = 10000
Dangerous builds not checked

Please see the log.cite file for references relevant to this simulation

Total wall time: 30:09:51
