LAMMPS (09 Jan 2020)
package omp 0
WARNING: OpenMP support not enabled during compilation; using 1 thread only. (../fix_omp.cpp:125)
units			real
atom_style		charge
read_data input_files/d760000_lmps.dat
  orthogonal box = (-15 -15 -15) to (50 50 50)
  1 by 1 by 1 MPI processor grid
  reading atoms ...
  936 atoms
  read_data CPU = 0.00090003 secs
reset_timestep		0

pair_style              reax/c lmp_control lgvdw yes
pair_coeff              * * ffield C H O N

neighbor		2.5 bin
neigh_modify		delay 0 every 5 check no

fix			qeq all qeq/reax 1 0.0 10.0 1e-6 reax/c
fix			bonds all reax/c/bonds 500 bonds.reaxc
fix			npt all npt temp 300 300 100 iso 1.0 1.0 2000
fix 1 all reax/c/species 10 10 100 species.out cutoff 1 4 0.25
WARNING: Resetting reneighboring criteria for fix reax/c/species (../fix_reaxc_species.cpp:97)


thermo			100
thermo_style            custom step temp pe etotal press vol density
thermo_modify           flush yes

timestep		0.25

dump			1 all custom 1000 dump/dump.reax.npt.* id type xu yu zu
restart			500 restart.npt300 restart.npt300
run 1000000
Last active /omp style is pair_style reax/c/omp
Neighbor list info ...
  update every 100 steps, delay 0 steps, check no
  max neighbors/atom: 2000, page size: 100000
  master list distance cutoff = 12.5
  ghost atom cutoff = 12.5
  binsize = 6.25, bins = 11 11 11
  2 neighbor lists, perpetual/occasional/extra = 2 0 0
  (1) pair reax/c/omp, perpetual
      attributes: half, newton off, ghost, omp
      pair build: half/bin/newtoff/ghost/omp
      stencil: half/ghost/bin/3d/newtoff
      bin: standard
  (2) fix qeq/reax/omp, perpetual, copy from (1)
      attributes: half, newton off, ghost
      pair build: copy
      stencil: none
      bin: none
Per MPI rank memory allocation (min/avg/max) = 70.31 | 70.31 | 70.31 Mbytes
Step Temp PotEng TotEng Press Volume Density 
       0            0   -111401.58   -111401.58     -288.817       274625  0.038816842 
     100    153.28381   -111815.05   -111387.84    147.28141    274611.85  0.038818701 
     200    180.89626   -111870.41   -111366.25   -447.12148    274592.49  0.038821438 
     300    182.96205   -111852.56   -111342.64    213.89731    274541.86  0.038828597 
     400    179.97453   -111815.81   -111314.21    147.65015    274452.29   0.03884127 
     500    188.28476   -111807.46    -111282.7    135.31546    274347.49  0.038856107 
     600    197.55224   -111799.91   -111249.32   -292.28084    274252.94  0.038869503 
     700    202.28709   -111776.96   -111213.18    26.968329    274104.84  0.038890504 
     800     204.7948   -111746.14   -111175.36   -317.89025     273908.6  0.038918367 
     900     210.0423    -111723.5    -111138.1   -257.55191    273656.59  0.038954207 
    1000    217.29423   -111704.92   -111099.31    91.440114    273430.41   0.03898643 
    1100    217.47313   -111664.92   -111058.81    77.136496    273256.72   0.03901121 
    1200    233.44517   -111668.79   -111018.16   -128.15657    273109.58  0.039032227 
    1300     248.6622   -111670.64   -110977.61    409.52321    272936.57   0.03905697 
    1400    254.84543   -111645.73   -110935.46   -110.33043    272771.66  0.039080583 
    1500    260.14788   -111620.35    -110895.3    170.17265    272572.01  0.039109207 
    1600    264.71832   -111593.25   -110855.47   -71.586081    272351.08  0.039140933 
    1700     271.1714   -111573.01   -110817.24   -179.86226    272142.69  0.039170904 
    1800    277.07095    -111551.9   -110779.69    500.96709    271935.16  0.039200799 
    1900     279.7494   -111523.76   -110744.08    39.213708       271792  0.039221446 
    2000    291.21399   -111521.45   -110709.82    75.640358     271707.3  0.039233674 
    2100    297.26267   -111506.99    -110678.5   -198.11027    271669.57  0.039239122 
    2200    313.44455   -111523.56   -110649.97     43.85352    271586.76  0.039251086 
    2300    312.53142   -111496.24    -110625.2   -119.88853    271492.57  0.039264704 
    2400     300.3081    -111441.6   -110604.62    148.89612    271461.23  0.039269238 
    2500     298.6254   -111419.57   -110587.28    118.71015    271514.28  0.039261564 
    2600    310.87435   -111439.67   -110573.25   -174.19261    271672.89  0.039238642 
    2700    322.06185   -111461.78   -110564.17   -95.225856    271911.47  0.039204214 
    2800    302.72132   -111404.59   -110560.89    235.00385    272204.85   0.03916196 
    2900    309.73228   -111426.11   -110562.87   -79.078296    272524.61  0.039116009 
    3000    308.82324   -111429.02   -110568.32    143.56572    272849.51  0.039069432 
    3100    320.80242   -111470.11   -110576.02    21.950357    273178.18  0.039022426 
    3200    301.12956   -111425.82   -110586.56     155.6588    273532.64  0.038971859 
    3300    308.99703   -111460.84   -110599.65    410.75841    273897.33  0.038919968 
    3400    294.98833   -111434.85    -110612.7    53.208968    274267.62  0.038867422 
    3500     304.8346   -111473.99    -110624.4   -130.49518    274621.19  0.038817382 
    3600    292.47984      -111450   -110634.84   -159.99472    274964.65  0.038768895 
    3700    297.99799   -111474.88   -110644.34   -48.424236    275274.18  0.038725301 
    3800    300.83997   -111491.52   -110653.06   -86.016675    275530.86  0.038689225 
    3900    299.88178   -111496.34   -110660.55    161.41044    275732.26  0.038660966 
    4000    295.68389   -111490.33   -110666.24   -5.0205454    275904.81  0.038636787 
    4100    296.67748   -111495.87   -110669.02    62.479614    276041.17    0.0386177 
    4200    296.24734   -111493.64   -110667.98   -96.081688    276158.45    0.0386013 
    4300    285.16645   -111461.45   -110666.67   -79.173815    276274.21  0.038585126 
    4400    294.82746   -111481.83   -110660.13   -255.58904       276397  0.038567985 
    4500    304.48089   -111500.84   -110652.23    87.112253    276516.28  0.038551348 
    4600    296.56923   -111470.45   -110643.89    52.035521    276624.86  0.038536216 
    4700    297.13108   -111462.05   -110633.93    333.56763    276764.59  0.038516761 
    4800    316.84443   -111507.84   -110624.78    307.30806    276963.87  0.038489047 
    4900    314.46148   -111493.51   -110617.09    42.097308    277148.56  0.038463399 
    5000    296.59666   -111436.85   -110610.22   -12.020853    277282.35  0.038444839 
    5100    295.67216   -111427.86    -110603.8   -2.0801242    277366.51  0.038433173 
    5200    296.32173   -111422.69   -110596.83 -0.099941495    277428.76   0.03842455 
    5300    298.61773   -111421.45   -110589.19   -98.704549     277514.2  0.038412721 
    5400    304.77615   -111430.42   -110580.99   -8.5817607    277628.15  0.038396954 
    5500    311.59717   -111441.66   -110573.22     194.2648    277724.72  0.038383602 
    5600    313.22348   -111441.79   -110568.82   -101.84677    277788.97  0.038374725 
    5700    302.84189   -111412.34    -110568.3    136.26122    277843.53   0.03836719 
    5800    312.80898   -111444.74   -110572.92    142.83505    277966.03  0.038350281 
    5900     308.2703   -111440.49   -110581.33    201.32613    278131.87  0.038327414 
    6000    307.25008   -111449.35   -110593.02    140.85241    278294.65  0.038304995 
    6100    298.53022   -111437.62    -110605.6    48.152961    278421.04  0.038287607 
    6200    304.20755   -111466.01   -110618.16   -199.14897    278544.34  0.038270659 
    6300    312.34117   -111502.24   -110631.73   -71.901715     278664.1  0.038254211 
    6400    299.42158   -111480.54   -110646.03   -148.63478    278758.72  0.038241227 
    6500    301.00433    -111498.1   -110659.19    -127.3408    278829.71   0.03823149 
    6600    292.22461    -111484.5   -110670.05   -70.237359    278909.59   0.03822054 
    6700    289.70502   -111483.73   -110676.31    20.274909     279003.2  0.038207717 
    6800    273.48259   -111439.75   -110677.54   -17.743244    279114.67  0.038192458 
    6900    299.22021   -111508.79   -110674.85     127.3036    279196.94  0.038181204 
    7000    293.55545   -111487.29   -110669.13    1.3001493    279259.47  0.038172654 
    7100    293.21467   -111477.29   -110660.09    58.353574    279286.59  0.038168948 
    7200    291.76013   -111462.78   -110649.63   -57.269102       279299  0.038167252 
    7300    301.94763   -111478.54   -110636.99    356.13422    279368.64  0.038157738 
    7400    288.35569   -111427.25   -110623.59   -118.31068    279499.43  0.038139883 
    7500     298.3842    -111442.9   -110611.28    95.753953    279623.51  0.038122959 
    7600    304.85257   -111448.15   -110598.51   -161.24566    279695.84    0.0381131 
    7700    303.45163   -111432.55   -110586.81     132.4064    279708.26  0.038111408 
    7800    320.74111   -111470.45   -110576.53    70.069754    279715.82  0.038110377 
    7900    301.67142   -111410.94   -110570.17    234.34618    279698.36  0.038112756 
    8000    311.46013   -111433.43   -110565.37   -100.71876    279664.83  0.038117326 
    8100    312.24926   -111434.29   -110564.03   -91.153795    279588.56  0.038127723 
    8200    311.89833   -111435.06   -110565.78    134.19601    279472.51  0.038143556 
    8300     305.9389   -111423.32   -110570.65    99.952611    279349.68  0.038160327 
    8400     304.2729   -111426.67   -110578.64   -6.9815345    279229.66   0.03817673 
    8500    312.39591   -111459.99   -110589.32   -310.82644    279108.16  0.038193349 
    8600     296.0731   -111428.18   -110603.01    -85.96821    279011.07  0.038206639 
    8700    299.97081   -111452.62   -110616.58    29.038304    278944.04   0.03821582 
    8800    292.07533   -111443.79   -110629.76   -118.62826     278914.7   0.03821984 
    8900    292.32461   -111457.15   -110642.43    71.656506    278880.93  0.038224469 
    9000    296.09345   -111477.08   -110651.85   -46.961982    278859.86  0.038227357 
    9100    288.79933   -111464.71   -110659.81    48.000535    278806.88  0.038234621 
    9200    296.12958   -111490.69   -110665.36   -35.383907    278750.37  0.038242372 
    9300    294.70687   -111489.81   -110668.44   -97.974875    278687.87  0.038250948 
    9400    302.01424   -111511.75   -110670.02    12.633035    278620.89  0.038260144 
    9500    297.60049      -111498   -110668.57   -233.12251    278583.59  0.038265267 
    9600    287.85106   -111467.88   -110665.62   -10.140218    278562.42  0.038268175 
    9700    303.38567   -111506.41   -110660.85    37.494975    278549.11  0.038270004 
    9800    301.12486   -111493.58   -110654.33    24.783602    278556.19   0.03826903 
    9900    301.44631   -111485.95   -110645.81    113.71669    278586.43  0.038264877 
   10000    297.87263   -111466.28    -110636.1     147.6512    278603.69  0.038262506 
   10100    308.23303   -111485.26    -110626.2     103.3328    278620.43  0.038260207 
   10200    312.82871   -111488.87      -110617   -198.01878    278620.11  0.038260251 
   10300    289.58184   -111415.57   -110608.49   -306.58397    278594.72  0.038263738 
   10400    293.63373   -111417.28   -110598.91   -132.38986     278523.9  0.038273467 
   10500    301.78506   -111430.02   -110588.93    53.383402    278413.65  0.038288623 
   10600    302.13087   -111424.77   -110582.71    296.32521    278292.33  0.038305315 
   10700     312.8762    -111452.2    -110580.2    8.9928272    278214.11  0.038316085 
   10800    310.26001   -111446.19   -110581.47    48.380279    278170.61  0.038322077 
   10900     311.9483   -111454.97   -110585.55    235.39322    278108.67  0.038330611 
   11000    299.17814   -111427.92    -110594.1   -150.33883    278037.24  0.038340459 
   11100     295.9651   -111428.52   -110603.65   -45.302686    277939.11  0.038353995 
   11200     311.3207   -111480.37    -110612.7    64.703206    277830.43  0.038368998 
   11300     290.3599   -111429.68   -110620.43    127.38621    277782.86  0.038375569 
   11400    307.06585   -111483.11    -110627.3    57.120541    277785.88  0.038375152 
   11500    285.99471   -111432.45   -110635.36    170.17304    277831.96  0.038368788 
   11600    301.31296   -111481.14   -110641.36    195.00217    277889.23   0.03836088 
   11700    292.69211   -111461.02   -110645.27    330.63468     277954.1  0.038351927 
   11800    295.18452   -111470.73   -110648.04   -141.38093    278009.89  0.038344231 
   11900    288.20479   -111450.54    -110647.3   -44.682244    278040.42  0.038340021 
   12000    292.34338   -111459.68    -110644.9    61.955989    278051.68  0.038338468 
   12100    305.08675   -111491.64   -110641.34   -52.203152    278032.63  0.038341095 
   12200    290.69409   -111445.41   -110635.23   -152.04607    277989.35  0.038347064 
   12300    313.31228   -111498.95   -110625.73   -56.880892    277971.69  0.038349501 
   12400    294.85246   -111436.61   -110614.84   -194.99986    278026.65  0.038341919 
   12500    305.15829   -111452.57   -110602.08    110.62909    278086.27  0.038333698 
   12600    302.87962   -111432.43   -110588.29    143.63408     278129.5  0.038327741 
   12700    307.15832   -111433.32   -110577.25    -264.1749    278146.57  0.038325389 
   12800     302.5437   -111412.09   -110568.88    167.35268    278152.44   0.03832458 
   12900      311.501   -111432.14   -110563.97    152.17088    278159.24  0.038323643 
   13000    296.10788   -111388.03   -110562.76   -138.17047    278204.87  0.038317357 
   13100    307.47092   -111420.55   -110563.61    344.87677    278225.29  0.038314545 
   13200    316.13566   -111447.44   -110566.35    320.52803    278202.74  0.038317651 
   13300    310.73662   -111436.39   -110570.35    115.67725    278144.88  0.038325621 
   13400     303.1622   -111420.73    -110575.8    361.87082    278075.63  0.038335166 
   13500    292.88738   -111399.86   -110583.56   -234.20687    278030.53  0.038341384 
   13600    308.34253    -111450.7   -110591.33    -64.22904    277972.33  0.038349412 
   13700    301.09746   -111441.64   -110602.46    -5.631501    277906.79  0.038358455 
   13800    304.73303    -111466.1   -110616.79   -247.77442    277816.64  0.038370903 
   13900    288.96361   -111443.03   -110637.68   -88.509803    277717.97  0.038384536 
   14000     290.1867    -111466.7   -110657.93   -26.783696    277623.92  0.038397539 
   14100    294.58786   -111492.98   -110671.95    262.43244    277542.22  0.038408842 
   14200    295.61387   -111501.63   -110677.74    112.93052    277490.16  0.038416048 
   14300    295.98821   -111502.99   -110678.05   -27.828717    277411.51  0.038426939 
   14400    289.63096    -111482.9   -110675.68   -24.817617    277281.88  0.038444904 
   14500    291.85022    -111484.7    -110671.3    207.07114     277102.9  0.038469736 
   14600    295.58964   -111488.85   -110665.03   -85.977418    276901.37  0.038497735 
   14700    298.90028   -111491.19   -110658.14    301.98485    276679.57  0.038528596 
   14800    305.00221   -111499.81   -110649.75   -223.39968    276478.49  0.038556618 
   14900    295.58442   -111464.94   -110641.13     64.09402    276320.84  0.038578615 
   15000    303.79204   -111480.54   -110633.85    2.0203336    276209.89  0.038594112 
   15100    286.98854   -111428.54   -110628.68   -53.011973     276083.7  0.038611751 
   15200    298.57722   -111456.57   -110624.42    317.20761    275923.79  0.038634129 
   15300    317.55477   -111507.77   -110622.73    145.60396    275745.01  0.038659177 
   15400    309.09758   -111484.05   -110622.58    310.36411    275564.63  0.038684484 
   15500    318.18204   -111512.62   -110625.83    158.25016    275420.63   0.03870471 
   15600    298.37636   -111465.13   -110633.54   -326.44165     275293.8  0.038722541 
   15700    303.62294   -111491.08   -110644.86   -440.41367    275116.25   0.03874753 
   15800    298.04136   -111490.26    -110659.6    151.06659    274859.62  0.038783709 
   15900     294.8942   -111495.33   -110673.44   -73.176725    274617.57  0.038817892 
   16000    300.22694    -111522.1   -110685.35   -245.57308    274372.59  0.038852553 
   16100    286.30812   -111491.12   -110693.16    172.40733    274123.81  0.038887813 
   16200    289.37702   -111503.47   -110696.96    72.729647    273876.13  0.038922981 
   16300    298.37493   -111529.12   -110697.53    93.654873    273646.29  0.038955673 
   16400    296.29028   -111521.86   -110696.08    4.2147242    273461.82  0.038981952 
   16500    302.36683   -111536.95   -110694.23   -166.11935    273293.26  0.039005995 
   16600     293.7652    -111512.1   -110693.36    35.835297    273065.41  0.039038541 
   16700    303.26155   -111536.26   -110691.06    16.027902    272811.88  0.039074821 
   16800    288.35291   -111490.74   -110687.09   -185.81143    272600.94  0.039105057 
   16900    286.76761   -111481.41   -110682.17   -115.89419    272446.91  0.039127165 
   17000     299.8943   -111511.73   -110675.91    62.467779     272274.2  0.039151986 
   17100    292.11983   -111484.38   -110670.22    85.342812    272066.44  0.039181883 
   17200    297.01816   -111493.41    -110665.6    115.65937    271873.17  0.039209737 
   17300    292.65648   -111476.95    -110661.3    149.12426     271703.7  0.039234192 
   17400    291.67416   -111470.18   -110657.26   -70.627346    271568.37  0.039253745 
   17500     304.0521   -111499.67   -110652.26   -227.58976    271417.37  0.039275583 
   17600    297.63518   -111478.98   -110649.45    148.25246    271225.56  0.039303358 
   17700    301.86782   -111489.28   -110647.96   -155.03986    271054.58  0.039328151 
   17800    301.52947      -111488   -110647.62    21.635001    270874.07  0.039354359 
   17900    296.74854   -111474.47   -110647.41   -292.54047    270687.65  0.039381462 
   18000    301.62484   -111488.14    -110647.5   -114.41463    270481.23  0.039411516 
   18100    310.32685   -111514.57   -110649.68   -190.11548    270294.72  0.039438711 
   18200    297.82057   -111482.68   -110652.64    61.445616    270089.92  0.039468617 
   18300    307.53337   -111511.72    -110654.6     104.2713    269920.65  0.039493367 
   18400    295.51943   -111481.41   -110657.78   -142.12998    269821.32  0.039507906 
   18500    297.75143   -111492.61   -110662.76   -91.329994    269749.55  0.039518418 
   18600    298.78186   -111502.08   -110669.36   -113.84869    269672.79  0.039529666 
   18700    298.35028   -111510.11   -110678.59    112.25793    269560.98  0.039546063 
   18800    299.36912   -111525.36   -110691.01    78.385045    269389.44  0.039571244 
   18900     287.6431   -111507.85   -110706.17    -181.9739    269168.85  0.039603674 
   19000    274.20335   -111481.12    -110716.9    361.74569    268945.31  0.039636591 
   19100    297.91541   -111553.87   -110723.56   -176.00571    268755.84  0.039664535 
   19200    284.01085   -111517.95    -110726.4   -305.66636     268576.8  0.039690976 
   19300     288.3798   -111527.99   -110724.25    143.05297    268364.83  0.039722326 
   19400    286.27306   -111517.09   -110719.24    19.026809    268147.65  0.039754498 
   19500    292.02246   -111523.66   -110709.78   -224.47939    267869.48  0.039795781 
   19600    289.63049    -111499.9   -110692.68    62.059245    267536.02  0.039845383 
   19700    291.64846    -111486.6   -110673.76    48.737915    267181.35  0.039898277 
   19800      299.058   -111492.76   -110659.27   -273.32203     266865.6  0.039945483 
   19900    298.84978    -111483.3   -110650.39    79.104228    266576.74  0.039988767 
   20000    293.41181   -111461.49   -110643.74    59.700077    266309.13  0.040028952 
   20100    308.61872   -111499.93   -110639.79    199.81359       266056  0.040067036 
   20200    296.28235    -111462.9   -110637.15   -118.25478    265834.75  0.040100383 
   20300    297.89994   -111467.31   -110637.04    12.920172    265597.63  0.040136184 
   20400    307.00696   -111493.67   -110638.03   -167.94613    265281.64  0.040183993 
   20500    303.11921   -111485.99   -110641.18   -70.032416    264878.13  0.040245208 
   20600    292.38569   -111459.58   -110644.68    130.45402    264417.74  0.040315281 
   20700    288.14401   -111451.45   -110648.37   -20.191124    263980.78  0.040382014 
   20800    307.04421   -111505.43   -110649.68    156.58551    263566.86  0.040445431 
   20900    295.61882   -111473.85   -110649.95    12.798558    263150.82  0.040509376 
   21000    294.64777   -111469.64   -110648.44    0.5018713     262721.4  0.040575589 
   21100    308.53124   -111505.51   -110645.62    436.46953    262281.74  0.040643604 
   21200    301.83927   -111484.55   -110643.31     30.09062    261831.54  0.040713488 
   21300    302.12839   -111482.25    -110640.2    246.47087    261371.62   0.04078513 
   21400    309.37486   -111499.73   -110637.49    352.15484    260902.71  0.040858431 
   21500    299.10325   -111467.85   -110634.23    247.86194    260407.31   0.04093616 
   21600    313.42556    -111503.8   -110630.26    413.75086    259894.75  0.041016893 
   21700    299.94349   -111464.86    -110628.9   -243.29173    259417.97  0.041092278 
   21800    312.99919   -111503.82   -110631.47    21.756762     258983.8  0.041161166 
   21900    311.86646   -111506.24   -110637.05   -9.7411623    258569.95  0.041227047 
   22000    302.52218    -111490.6   -110647.46    161.45617    258172.89  0.041290452 
   22100    298.62934   -111492.37   -110660.07    257.75885    257799.78  0.041350212 
   22200    299.17164   -111506.81      -110673   -19.211103     257480.4  0.041401502 
   22300    295.01714   -111505.42   -110683.19   -32.309506    257171.75  0.041451192 
   22400    300.87223   -111529.09   -110690.55    323.21199    256827.59  0.041506737 
   22500    290.82634   -111505.84   -110695.29    234.95164    256445.85  0.041568524 
   22600    286.50955   -111494.82   -110696.31    384.63085    256039.47  0.041634499 
   22700    288.61111   -111499.13   -110694.76   -210.94046    255663.21  0.041695774 
   22800     285.0165   -111483.82   -110689.46   -89.123932    255313.37  0.041752907 
   22900    283.70271   -111471.56   -110680.87    -62.03298    254990.36  0.041805797 
   23000    299.30416   -111502.24   -110668.06    49.074413    254693.62  0.041854505 
   23100    293.74274   -111472.53   -110653.86    68.818822    254390.24   0.04190442 
   23200    305.70055   -111494.76   -110642.76    26.147014    254080.32  0.041955534 
   23300    308.82165   -111498.09   -110637.38    61.925839    253748.53  0.042010393 
   23400    302.00995   -111478.24   -110636.52   -52.370757    253409.19  0.042066649 
   23500    304.08472   -111484.48   -110636.98    -120.7185     253066.7  0.042123581 
   23600    308.46364   -111499.94   -110640.24    89.601293    252712.73  0.042182582 
   23700    298.55477   -111474.92   -110642.83   -175.72481     252352.6  0.042242781 
   23800    301.62119    -111485.6   -110644.96     185.8818    252004.13  0.042301193 
   23900    294.83508   -111469.44   -110647.72    391.67255    251692.83  0.042353512 
   24000    292.07044   -111463.06   -110649.04   -97.253025    251422.44   0.04239906 
   24100    296.18771   -111476.04   -110650.54   -306.79876    251152.75  0.042444589 
   24200    290.65977   -111461.36   -110651.27   -79.105354    250871.38  0.042492193 
   24300    306.66744   -111504.12   -110649.42    322.26207    250573.54  0.042542701 
   24400    296.60763   -111473.26   -110646.59   -110.30049    250321.18  0.042585591 
   24500    300.33433   -111481.36   -110644.31    -248.4902    250077.16  0.042627146 
   24600    307.35064   -111498.82   -110642.21    185.64847    249803.98  0.042673762 
   24700     299.3797   -111473.52   -110639.13    12.147776    249482.97   0.04272867 
   24800     304.6066   -111483.07   -110634.11   -196.14971    249161.11  0.042783864 
   24900    305.20408   -111477.01   -110626.39   -125.43881     248887.8  0.042830847 
   25000    300.69227   -111456.56   -110618.51    57.692687    248642.37  0.042873125 
   25100     307.1954   -111467.73   -110611.56   -266.90848    248358.15  0.042922188 
   25200    303.25823    -111451.8    -110606.6   -5.5152218    248016.47   0.04298132 
   25300     307.0896   -111458.22   -110602.34   -313.56443    247639.05  0.043046828 
   25400      303.451   -111442.56   -110596.83   -49.417617    247228.86  0.043118248 
   25500    309.52177   -111454.19   -110591.53   -277.27275     246801.2  0.043192965 
   25600     303.7898   -111437.99   -110591.31    369.55204    246353.12  0.043271526 
   25700    317.84934   -111478.74   -110592.88   -85.408698    245917.96  0.043348096 
   25800    310.36465   -111465.33   -110600.33    -229.4612    245506.75  0.043420702 
   25900    300.51956    -111448.2   -110610.63   -135.70984    245115.23  0.043490057 
   26000    292.58894   -111439.95   -110624.49   -336.09553    244740.55  0.043556638 
   26100    308.05976   -111498.42   -110639.84   -337.81997    244338.22  0.043628358 
   26200    301.21871   -111494.05   -110654.53   -76.549062    243893.81  0.043707856 
   26300    294.95981   -111487.24   -110665.17    78.164766     243501.1  0.043778345 
   26400    298.98136   -111505.27      -110672   -349.24387    243155.77  0.043840519 
   26500    300.48768   -111513.09   -110675.61    80.163879    242816.71  0.043901737 
   26600    302.34871   -111519.67   -110677.01    71.109744    242447.64  0.043968566 
   26700     305.9616   -111531.47   -110678.74    63.156843    242069.73   0.04403721 
   26800    307.45148    -111536.3   -110679.42    163.43524    241718.81  0.044101141 
   26900    295.39409   -111500.59   -110677.31     488.8552    241370.27  0.044164823 
   27000    290.56311   -111484.61    -110674.8    72.701022    241045.83  0.044224267 
   27100    301.16052   -111507.97   -110668.62   -154.22761    240727.95  0.044282665 
   27200     304.6305   -111509.11   -110660.09   -15.122815    240433.39  0.044336918 
   27300    311.56968    -111516.8   -110648.43   -108.30667    240138.54  0.044391356 
   27400    301.49579   -111476.14   -110635.86   -232.89153    239844.88  0.044445708 
   27500     302.0871   -111466.04    -110624.1   -92.469983    239545.69  0.044501219 
   27600    304.40695    -111462.8    -110614.4   -37.200362    239268.33  0.044552805 
   27700    310.24172   -111473.51   -110608.85   -121.06523    239021.21  0.044598867 
   27800    309.10734   -111467.69   -110606.19   -301.13072    238775.65  0.044644734 
   27900    310.92777   -111473.29   -110606.72   -120.75572    238525.01  0.044691646 
   28000    311.36557   -111477.88   -110610.09   -212.36802    238258.99  0.044741546 
   28100    300.94168   -111453.68   -110614.94   -225.19168     238007.9  0.044788746 
   28200    299.43863   -111454.71   -110620.16     15.95258    237759.22  0.044835591 
   28300    312.67355   -111496.26   -110624.82   -60.064531    237479.02  0.044888493 
   28400    308.55026   -111489.14   -110629.19    66.177213    237156.61  0.044949518 
   28500    308.15068   -111492.91   -110634.08   -95.099315    236803.68   0.04501651 
   28600    309.61243   -111501.69   -110638.78    47.199124    236457.74   0.04508237 
   28700    300.89693   -111484.88   -110646.26   -283.73178    236121.17  0.045146632 
   28800    292.62338   -111469.51   -110653.95   -219.52659    235795.07  0.045209068 
   28900     295.4082   -111482.41   -110659.09   -115.29532    235464.53  0.045272531 
   29000    289.65425   -111469.74   -110662.46    285.60601    235172.56  0.045328739 
   29100    294.69308    -111485.4   -110664.07    394.76706    234931.87  0.045375178 
   29200    295.78795   -111488.29   -110663.91   -44.149845    234713.95  0.045417306 
   29300    301.29624   -111502.65   -110662.92    180.84741    234489.32  0.045460813 
   29400    297.88517    -111489.6   -110659.38    171.07123    234252.97  0.045506681 
   29500    305.53007   -111505.98   -110654.45   -201.14617    234013.32  0.045553285 
   29600    302.23249   -111490.23   -110647.89    84.253769    233800.23  0.045594803 
   29700    309.15223   -111500.87   -110639.24   -372.55115    233614.19  0.045631112 
   29800    299.85408   -111467.54   -110631.83   -313.30221    233426.05  0.045667891 
   29900    301.52158   -111466.29   -110625.93    24.533899    233206.89  0.045710808 
   30000    307.99401   -111478.12   -110619.73    98.514552    232947.21  0.045761765 
   30100    313.54444   -111488.94   -110615.08    238.25278    232719.67  0.045806508 
   30200    291.87283   -111426.78   -110613.31   -218.74903    232557.89  0.045838372 
   30300    318.62615   -111499.88   -110611.85    109.14365    232435.27  0.045862556 
   30400    308.15788   -111473.71   -110614.86   -124.60926    232320.86   0.04588514 
   30500    312.54309   -111493.69   -110622.62    -42.67188    232196.22  0.045909771 
   30600     307.3355   -111493.49   -110636.93    71.214544    232082.41  0.045932285 
   30700    307.82407   -111513.25   -110655.33   -444.02065    231973.09   0.04595393 
   30800    314.78229   -111548.27   -110670.96   -239.69671    231865.41  0.045975271 
   30900    295.03606   -111506.01   -110683.73    159.81196    231768.39  0.045994518 
   31000    298.12468   -111522.72   -110691.82   -11.302678    231693.65  0.046009354 
   31100    295.78963   -111520.05   -110695.66   -255.86059    231622.62  0.046023465 
   31200    310.13325   -111561.17   -110696.81   -246.93068     231528.6  0.046042154 
   31300    304.34258   -111544.89   -110696.67   -6.4771746    231368.05  0.046074103 
   31400    291.72458   -111507.64   -110694.59    -78.82782    231154.03  0.046116763 
   31500    293.71787   -111511.35   -110692.75     268.9222    230935.65  0.046160372 
   31600    288.10679   -111493.39   -110690.42   -48.552298    230718.52  0.046203812 
   31700    309.50518   -111548.75   -110686.14   -17.139119     230468.8  0.046253876 
   31800    311.08101   -111544.56   -110677.56    11.106498    230217.07  0.046304453 
   31900    287.58131   -111468.71    -110667.2   -72.686685    229992.08   0.04634975 
   32000    305.63116   -111508.15   -110656.34    344.94882       229776  0.046393338 
   32100    298.83204   -111478.29   -110645.43   -140.62369    229548.53   0.04643931 
   32200    311.02414    -111501.1   -110634.26    109.52591    229347.19  0.046480078 
   32300    306.64298   -111479.27   -110624.64   -162.34498    229198.22  0.046510288 
   32400     310.7272   -111485.51    -110619.5    178.32495    229054.79  0.046539413 
   32500    310.15007   -111479.44   -110615.03   -508.73663    228922.23  0.046566361 
   32600    311.45916   -111481.89   -110613.83     168.6495    228774.58  0.046596415 
   32700    299.84937    -111452.5   -110616.81   -309.83891    228652.57  0.046621279 
   32800    305.55034   -111476.51   -110624.93    319.57635    228536.39   0.04664498 
   32900    306.95915    -111495.7   -110640.18   -590.77687    228452.24  0.046662162 
   33000    307.06769   -111518.73   -110662.92    271.02176    228408.12  0.046671175 
   33100    289.95843    -111491.7   -110683.57   -5.5926455    228355.55   0.04668192 
   33200    295.47199    -111520.2   -110696.71   -93.485465    228253.03  0.046702886 
   33300    292.39959   -111518.73   -110703.79    66.799718    228135.13  0.046727022 
   33400    297.32274   -111536.09   -110707.44    105.69169    228024.08  0.046749779 
   33500    299.16961   -111540.45   -110706.64    330.99503    227910.85  0.046773005 
   33600    294.79162   -111526.19   -110704.59   -74.263361    227787.93  0.046798244 
   33700    293.62289   -111518.19   -110699.85    58.745482    227677.67  0.046820908 
   33800    291.79731   -111506.48   -110693.23   -103.75008    227573.65   0.04684231 
   33900    293.91434   -111503.44   -110684.28     -425.224    227460.89  0.046865531 
   34000    299.67008   -111508.87   -110673.67   -91.366694    227320.02  0.046894572 
   34100    305.74242   -111514.73   -110662.61   -54.728171    227149.04  0.046929873 
   34200    297.78874   -111482.52   -110652.57    21.566099    226972.32  0.046966411 
   34300     297.9441   -111473.97   -110643.58   -154.83197    226800.47  0.047001999 
   34400    294.24143   -111457.11   -110637.04   -117.15219    226672.04  0.047028629 
   34500    307.99947   -111490.96   -110632.55    6.6634856    226577.69  0.047048213 
   34600    311.06613   -111496.86   -110629.91   -42.820603    226488.71  0.047066696 
   34700    301.27816   -111470.96   -110631.28   -120.39981    226399.03  0.047085341 
   34800    303.10818   -111478.69   -110633.91    87.198421    226308.11  0.047104257 
   34900    312.83676   -111509.89      -110638   -270.58352     226228.3  0.047120875 
   35000    304.07346   -111492.61   -110645.14   -186.80058    226123.18   0.04714278 
   35100    287.67109   -111455.86    -110654.1   -205.41048     225990.1  0.047170542 
   35200    302.29439   -111507.23   -110664.72    146.14749    225818.94  0.047206293 
   35300    292.42165   -111493.28   -110678.28    -182.4401    225611.37  0.047249725 
   35400    297.23146   -111521.25   -110692.85     44.16728    225411.74  0.047291571 
   35500    298.82143   -111540.56   -110707.73  -0.79556054    225219.23  0.047331995 
   35600    291.27807   -111531.54   -110719.73   -33.898792    225018.49   0.04737422 
   35700     293.1615   -111544.06      -110727   -153.02594    224804.75  0.047419263 
   35800    292.62723   -111545.69   -110730.12    96.987436    224569.63  0.047468909 
   35900    290.78172    -111539.2   -110728.78    25.523197    224347.07  0.047516001 
   36000    284.63196   -111519.76   -110726.47   -68.323331    224175.65  0.047552333 
   36100    289.61577   -111529.63   -110722.45    -258.9552       224028  0.047583675 
   36200    288.85902   -111523.45   -110718.38    17.907185    223879.48   0.04761524 
   36300    299.66271   -111548.12   -110712.94    444.24193    223747.99  0.047643223 
   36400     303.2075   -111549.74   -110704.68   -29.622247     223671.9  0.047659431 
   36500    299.00351   -111529.44    -110696.1    55.704226    223647.84  0.047664559 
   36600    294.49333   -111507.55   -110686.78   -20.585807    223652.35  0.047663597 
   36700     298.9976   -111508.49   -110675.16    52.154102    223640.78  0.047666061 
   36800    309.66672   -111527.21   -110664.15   -185.01242    223620.88  0.047670303 
   36900    297.93011   -111484.99   -110654.64   -158.44964     223585.3   0.04767789 
   37000    303.10942   -111491.84   -110647.06   -24.589467    223557.83  0.047683748 
   37100    314.50856   -111517.85   -110641.29   -168.28619    223555.29  0.047684291 
   37200     303.3202   -111483.47    -110638.1   -253.18878    223547.37   0.04768598 
   37300    312.13286   -111506.93      -110637    305.33383    223550.58  0.047685296 
   37400    307.72236   -111496.29   -110638.65    296.19155    223543.35  0.047686837 
   37500    312.75871   -111514.15   -110642.47    503.56505    223520.95  0.047691616 
   37600    292.95746   -111466.28   -110649.79       118.76     223480.4  0.047700271 
   37700    299.31152   -111493.02   -110658.82   -201.36197    223421.61  0.047712821 
   37800    300.00117   -111508.48   -110672.36   -151.64867    223353.57  0.047727357 
   37900    289.44187   -111495.77   -110689.08    113.15896    223265.04  0.047746282 
   38000    292.70026   -111520.83   -110705.05     319.6495    223162.21  0.047768282 
   38100    294.99949   -111537.95   -110715.77     311.8144    223020.15   0.04779871 
   38200    294.64405   -111540.97   -110719.78   -48.622819    222868.47   0.04783124 
   38300    289.60538   -111526.22   -110719.07   -230.72321    222683.31  0.047871011 
   38400    281.40795    -111500.2    -110715.9   -36.041276    222495.48  0.047911424 
   38500    290.80096   -111521.02   -110710.54     115.7983    222298.55  0.047953867 
   38600    293.36269   -111522.79   -110705.17    192.82541    222108.87   0.04799482 
   38700    300.35102   -111534.96   -110697.87    44.992941    221953.14  0.048028496 
   38800    297.39094   -111520.57   -110691.72    78.010596    221828.34  0.048055516 
   38900    306.56111   -111539.77   -110685.36   -106.62378    221688.51  0.048085828 
   39000    304.84245   -111528.48   -110678.87    13.976401    221499.82  0.048126791 
   39100    298.85326   -111504.37   -110671.45   -55.942185    221297.05  0.048170888 
   39200    299.14752   -111499.36   -110665.62    -16.94735    221095.26  0.048214854 
   39300    294.70902   -111480.78   -110659.41   -116.02839    220894.55  0.048258661 
   39400    300.68238   -111491.92    -110653.9    238.45151    220706.32  0.048299819 
   39500    299.68094   -111484.92   -110649.69   -112.68046    220505.82  0.048343737 
   39600    303.05476   -111492.06   -110647.43   -49.536282    220289.79  0.048391146 
   39700    299.42473   -111481.09   -110646.58    16.707865    220054.87  0.048442806 
   39800    298.48419   -111477.86   -110645.97    6.9443919    219808.52  0.048497097 
   39900    295.82134    -111473.2   -110648.73   -246.45479    219573.04  0.048549109 
   40000    310.47413   -111517.58   -110652.27    32.459597    219337.66  0.048601209 
   40100    301.59209   -111499.64   -110659.08   -68.952771    219142.26  0.048644545 
   40200     304.6376   -111520.04      -110671    174.64086    218956.88  0.048685728 
   40300    298.49903   -111522.37   -110690.44    207.23756    218749.57  0.048731869 
   40400    284.29431   -111505.03   -110712.68    90.899025    218522.56  0.048782493 
   40500     293.1135    -111544.1   -110727.18    309.05747     218334.3  0.048824557 
   40600    288.51676   -111537.69   -110733.57    366.95212    218216.52  0.048850908 
   40700    283.39982   -111525.21   -110735.36     62.13906    218133.78  0.048869439 
   40800    289.24876   -111540.09   -110733.93    183.38293    218064.11  0.048885053 
   40900    287.60462   -111531.29   -110729.72   -282.52842    217974.36  0.048905181 
   41000    290.04523   -111532.46   -110724.09   -89.073169    217868.46  0.048928951 
   41100    295.75306   -111541.12   -110716.84    4.6764174    217767.59  0.048951616 
   41200    290.04815   -111515.75   -110707.37    -44.28155    217684.39  0.048970325 
   41300     294.4923    -111517.3   -110696.53   -212.24921    217614.14  0.048986133 
   41400    292.69791   -111500.99   -110685.23   -75.898228    217536.48  0.049003622 
   41500    300.36112   -111512.79   -110675.67    188.04629    217455.16  0.049021947 
   41600     298.1293   -111497.76   -110666.85    70.241634    217350.14  0.049045633 
   41700     295.8837   -111484.98   -110660.33    289.92648    217243.67  0.049069671 
   41800    307.26723   -111511.49   -110655.12     8.934038     217189.5  0.049081909 
   41900    312.39437   -111522.61   -110651.95    92.574391    217176.95  0.049084746 
   42000    305.59005   -111501.21   -110649.52   -360.83931    217160.63  0.049088434 
   42100    305.81948   -111501.22   -110648.88    415.81452    217131.35  0.049095055 
   42200     301.0754    -111488.2   -110649.08    175.22185    217097.82  0.049102636 
   42300     295.1378   -111474.34   -110651.77   -205.49085    217068.11  0.049109357 
   42400    306.92454   -111509.46   -110654.05   -57.298139    217032.13    0.0491175 
   42500    299.60794   -111493.05   -110658.02    -217.6455    216993.08  0.049126338 
   42600    290.42418   -111473.96   -110664.53    20.238903    216937.03   0.04913903 
   42700    296.73546   -111498.29   -110671.27    55.667098     216907.3  0.049145766 
   42800    288.02662   -111481.83   -110679.08    -91.16165    216878.01  0.049152402 
   42900    296.69454   -111516.21    -110689.3   -456.75603    216812.72  0.049167205 
   43000    288.78958   -111508.66   -110703.79   -267.87003    216686.15  0.049195925 
   43100    291.11033   -111530.08   -110718.74    384.55418    216544.69  0.049228061 
   43200    279.29185   -111509.54   -110731.14    190.31119    216436.16  0.049252747 
   43300    279.69924   -111518.07   -110738.53   -117.71588    216347.32  0.049272972 
   43400    288.32851    -111543.1   -110739.51   -223.56995    216260.17  0.049292827 
   43500    284.08328   -111528.18   -110736.42    34.468617    216134.85  0.049321408 
   43600    291.78757   -111541.79   -110728.56   -276.75442    215971.66  0.049358678 
   43700    292.55117   -111531.38   -110716.03   -474.96163    215769.45  0.049404933 
   43800    296.89984   -111524.95   -110697.47   -283.94079    215538.47  0.049457879 
   43900     304.9332   -111531.96    -110682.1    195.01587    215305.11  0.049511483 
   44000    307.16251   -111528.51   -110672.43    40.787827    215121.58  0.049553724 
   44100    308.92447   -111530.81   -110669.82    315.45971    214969.02  0.049588891 
   44200    301.99276   -111510.99   -110669.32   -346.42154    214792.86   0.04962956 
   44300    298.29375   -111501.46    -110670.1    17.938974    214579.31  0.049678953 
   44400    291.06467   -111480.96   -110669.74    404.43216    214358.18  0.049730201 
   44500    303.01486   -111513.72    -110669.2    214.48701    214149.12   0.04977875 
   44600    302.07038    -111510.9   -110669.01    125.04747    213955.92    0.0498237 
   44700    301.88454   -111510.68   -110669.31    46.884499     213785.2  0.049863485 
   44800     296.8914   -111496.71   -110669.25    271.24772    213625.01  0.049900876 
   44900    309.86628   -111533.09   -110669.48    340.10335    213475.37  0.049935855 
   45000      292.816   -111487.16   -110671.06    190.75527    213347.82   0.04996571 
   45100    304.37247   -111522.14   -110673.84    19.382342    213210.35  0.049997927 
   45200    293.27831   -111494.89   -110677.51    221.53233    213052.99  0.050034855 
   45300    307.39893   -111538.54    -110681.8   -146.29123     212925.6   0.05006479 
   45400    286.75441   -111485.25   -110686.05    39.102712    212835.59  0.050085963 
   45500    289.61212   -111497.65   -110690.49   -242.35961    212746.28  0.050106988 
   45600     312.5996   -111564.64   -110693.41    919.85869     212641.5   0.05013168 
   45700    301.51045   -111536.98   -110696.66   -86.588724     212563.2  0.050150146 
   45800    285.38987   -111493.93   -110698.53    66.055005    212472.92  0.050171455 
   45900     293.7151   -111516.09   -110697.49    155.51035    212347.34  0.050201125 
   46000    290.85959    -111504.3   -110693.66    43.779812     212219.9   0.05023127 
   46100    303.68054    -111531.6   -110685.23   -142.43203    212128.08  0.050253014 
   46200    297.42431   -111502.65   -110673.71   -304.43227    212075.67  0.050265434 
   46300    300.37254   -111497.58   -110660.42    35.873172    212039.87   0.05027392 
   46400    306.81636   -111502.84   -110647.72   -49.752545    211984.41  0.050287072 
   46500     310.5343   -111504.64   -110639.16    223.35665    211929.63  0.050300072 
   46600    299.74014   -111468.83   -110633.44   -295.94183    211891.37  0.050309154 
   46700    310.91719   -111496.84    -110630.3    25.880753     211852.3   0.05031843 
   46800    297.03309   -111456.83   -110628.98    167.97131    211782.02   0.05033513 
   46900    306.16577    -111484.5    -110631.2    535.34607    211692.11  0.050356507 
   47000    294.18789   -111455.89   -110635.98   -14.955236    211615.02  0.050374851 
   47100      300.669   -111481.56   -110643.58   -522.77987    211560.78  0.050387768 
   47200    309.22577   -111516.74   -110654.91   -8.1039957    211501.44  0.050401905 
   47300    289.24005   -111476.81   -110670.68   -92.066785    211434.24  0.050417924 
   47400    296.39805   -111512.88    -110686.8    -26.00694    211331.62  0.050442406 
   47500    298.42099   -111531.22    -110699.5     94.07258     211249.4   0.05046204 
   47600    286.01475   -111504.75   -110707.61   -101.19456    211205.72  0.050472474 
   47700    298.86448   -111542.98   -110710.03    327.12018    211173.83  0.050480098 
   47800    293.76106   -111528.32   -110709.59   -82.418987    211103.34  0.050496954 
   47900    288.77748   -111513.16   -110708.32    85.137376       210985  0.050525275 
   48000    288.31199   -111508.07   -110704.52    182.89374    210853.23  0.050556852 
   48100    290.18671   -111508.77      -110700    286.91144    210726.34  0.050587294 
   48200    292.75137   -111511.25   -110695.34    131.07317    210616.78   0.05061361 
   48300     304.9142   -111539.11   -110689.29   -176.45956     210525.9  0.050635458 
   48400    294.53678   -111504.91   -110684.01   -13.208559    210450.32  0.050653643 
   48500    289.52797   -111486.01   -110679.08   -132.01385    210345.79  0.050678815 
   48600    297.91875   -111502.88   -110672.56   -88.779451    210197.74  0.050714509 
   48700    292.79996    -111481.6   -110665.55   -228.43571    210000.09  0.050762243 
   48800    303.05537   -111502.88   -110658.25   -288.14781    209780.84  0.050815296 
   48900    315.71033    -111533.5    -110653.6     89.85078    209547.52  0.050871876 
   49000    297.71903   -111479.38   -110649.62     378.8366     209337.4  0.050922938 
   49100    300.04743   -111482.35    -110646.1    381.89883    209146.33  0.050969459 
   49200    298.38103      -111477    -110645.4    153.21991    208975.63  0.051011093 
   49300    293.71922   -111465.49   -110646.88   -432.64446     208832.1  0.051046152 
   49400    309.84578   -111514.36    -110650.8    188.57019    208678.25  0.051083788 
   49500     289.8417   -111465.21   -110657.41   -409.15885    208505.09  0.051126212 
   49600    300.16438   -111506.32   -110669.74     458.7673     208314.1  0.051173087 
   49700     294.9935   -111508.23   -110686.06    51.178279    208133.97  0.051217374 
   49800    298.04041   -111533.52   -110702.86   -241.24215    207947.67   0.05126326 
   49900    291.55095   -111529.01   -110716.44    283.54592    207762.26  0.051309007 
   50000    302.43999   -111567.48   -110724.56    258.28252     207596.5  0.051349976 
   50100    296.45672    -111554.9   -110728.65   -24.138069    207430.45  0.051391082 
   50200     290.1724   -111538.33   -110729.61   -120.23568    207240.67  0.051438144 
   50300    294.84707   -111547.17   -110725.41   -271.07275    207039.26  0.051488183 
   50400    285.60892   -111515.66   -110719.66    129.42326    206843.66  0.051536874 
   50500     291.6574   -111521.84   -110708.98   -261.48839    206669.24  0.051580367 
   50600    288.23942   -111498.85   -110695.51    320.24968    206514.97  0.051618898 
   50700    305.87191    -111536.2   -110683.72   -4.7645488    206405.66  0.051646235 
   50800    297.81304    -111504.6   -110674.58    274.80777    206310.52  0.051670051 
   50900    296.53896      -111494   -110667.52     111.1926    206226.98  0.051690984 
   51000      301.353   -111503.51   -110663.62      104.886    206164.25  0.051706712 
   51100    303.05882   -111507.46   -110662.82   -241.72066    206149.09  0.051710515 
   51200    312.27932   -111532.37   -110662.03   -169.63095    206152.55  0.051709646 
   51300    299.46196   -111495.75   -110661.13    61.736827    206200.46  0.051697632 
   51400    302.76192   -111505.32   -110661.51    295.82975    206264.27  0.051681638 
   51500    291.16575   -111472.68   -110661.18   -632.40939     206358.6  0.051658013 
   51600     294.7117   -111482.26   -110660.88    -17.67668    206431.17  0.051639853 
   51700    292.53551    -111476.5   -110661.18    43.175639    206474.83  0.051628933 
   51800    304.71452   -111510.23   -110660.97    137.90138    206506.12  0.051621111 
   51900    309.04536   -111522.18   -110660.85   -52.193753    206541.12  0.051612364 
   52000    291.35295   -111475.63   -110663.61    169.73732    206563.83  0.051606688 
   52100    302.12611   -111510.48   -110668.44   -342.94281    206565.11  0.051606368 
   52200     310.2793   -111541.46    -110676.7   -12.412029    206518.63  0.051617984 
   52300    301.18182   -111527.16   -110687.75   -191.54539    206419.41  0.051642794 
   52400     283.6509   -111490.98   -110700.43    211.79926    206295.53  0.051673808 
   52500    269.99364   -111462.09    -110709.6    9.1492799    206168.54  0.051705636 
   52600     288.4664   -111518.09   -110714.11    109.79874    206037.32  0.051738566 
   52700    291.01762   -111528.08      -110717    282.43657       205914  0.051769551 
   52800    296.40483    -111541.4   -110715.31   -557.34324    205811.36  0.051795369 
   52900    283.25206   -111500.11   -110710.67    308.37182    205689.09  0.051826158 
   53000    288.11456   -111503.86   -110700.87   -148.39126    205543.89   0.05186277 
   53100    300.85013   -111525.09    -110686.6   -253.95187    205369.61   0.05190678 
   53200    290.10688   -111481.31   -110672.77   -125.70076    205167.93  0.051957804 
   53300    292.95589    -111477.8   -110661.31    219.59709    204928.14  0.052018602 
   53400    309.56147   -111515.44   -110652.67    95.073611    204683.53  0.052080769 
   53500    303.96803   -111494.05   -110646.88   -269.03456    204445.29  0.052141456 
   53600    294.79553   -111465.85   -110644.24    387.70033    204223.34  0.052198125 
   53700    301.34771   -111481.44   -110641.57   -188.59969    204034.62  0.052246405 
   53800    302.51737   -111485.44    -110642.3    11.541983    203832.85  0.052298122 
   53900    312.50011   -111513.85    -110642.9    133.68539    203609.44  0.052355505 
   54000    309.90883   -111509.02   -110645.29     173.8569    203418.45  0.052404662 
   54100    294.88524   -111471.26    -110649.4    234.95592     203275.7  0.052441465 
   54200    297.24897   -111485.95    -110657.5    73.072418    203136.24  0.052477466 
   54300    307.31723   -111523.08   -110666.57   -45.002493    202983.84  0.052516866 
   54400    300.23395   -111514.44   -110677.67    376.20077    202838.32  0.052554543 
   54500    279.79222   -111468.54   -110688.75    686.12435    202710.23  0.052587753 
   54600    299.39001   -111535.04   -110700.63   -330.66422    202584.21  0.052620465 
   54700    300.68734   -111550.43    -110712.4    15.964561    202443.18  0.052657122 
   54800    293.22127   -111541.12    -110723.9    228.40208    202300.91  0.052694153 
   54900    288.81826    -111539.8   -110734.85   -356.10414    202151.96   0.05273298 
   55000    294.84209   -111565.66   -110743.91    308.77582       202019  0.052767688 
   55100    285.09056   -111544.56   -110749.99    114.43565    201916.22  0.052794547 
   55200    284.38689   -111546.93   -110754.33   -303.52414    201813.86  0.052821325 
   55300    284.16712   -111544.98   -110752.99    -45.98221    201691.06  0.052853486 
   55400    279.56515   -111521.63   -110742.47   -113.89274    201565.18  0.052886493 
   55500    283.74736   -111511.87   -110721.05   -39.477397    201440.29  0.052919282 
   55600    281.96504   -111484.17   -110698.32    18.542399    201302.04  0.052955624 
   55700    295.20018   -111504.34    -110681.6   -165.68473    201152.74  0.052994929 
   55800    301.51781   -111509.02   -110668.67   -16.532632     200985.4  0.053039054 
   55900    300.41106   -111495.53   -110658.26   -147.23811     200826.9  0.053080913 
   56000    303.26318    -111493.8   -110648.59   -35.876644    200685.26  0.053118378 
   56100    305.30949   -111491.59   -110640.68    154.20027     200560.5   0.05315142 
   56200    302.39449   -111476.54   -110633.75   -134.98452    200444.13  0.053182277 
   56300     304.0669   -111477.89   -110630.44    107.94011    200335.69  0.053211064 
   56400    314.61766   -111504.29   -110627.43    119.06884    200230.42  0.053239041 
   56500    320.09199   -111518.77   -110626.65    436.07147    200119.56  0.053268533 
   56600    319.19834   -111518.59   -110628.96    179.73736    200018.85  0.053295355 
   56700    298.64723   -111467.92   -110635.57    151.25575    199929.79  0.053319095 
   56800    312.10412   -111515.52   -110645.67   -458.55542    199832.46  0.053345064 
   56900    303.75084   -111504.34   -110657.77    31.337965    199705.31  0.053379029 
   57000    296.88409   -111498.16   -110670.73    211.75929    199582.03  0.053411999 
   57100    292.31195   -111496.06   -110681.37    251.63182    199487.77  0.053437239 
   57200    290.18103   -111497.83   -110689.08    38.384883    199423.75  0.053454393 
   57300    298.27822   -111525.61    -110694.3    169.77635    199381.49  0.053465721 
   57400    282.64828   -111484.72   -110696.96    455.96049    199366.69   0.05346969 
   57500    288.82137   -111500.63   -110695.67   -47.989268    199362.33  0.053470861 
   57600    297.22778   -111522.61   -110694.21    87.661339    199353.52  0.053473223 
   57700    299.49664   -111527.13   -110692.41   -204.27861    199343.46  0.053475922 
   57800    286.81668   -111488.01   -110688.64    503.58818    199336.33  0.053477835 
   57900    297.94529   -111512.01   -110681.62    32.655782    199308.68  0.053485255 
   58000    309.75424   -111535.34   -110672.04   -174.90233    199266.18   0.05349666 
   58100    309.26048   -111520.42   -110658.49    677.63758    199222.99   0.05350826 
   58200    304.69622   -111491.62   -110642.42    386.17543    199187.47    0.0535178 
   58300    308.34402    -111486.5   -110627.13    324.88173     199167.7  0.053523113 
   58400    309.96949   -111478.74   -110614.83     22.34108    199152.53  0.053527191 
   58500    314.24953   -111482.98   -110607.15   -18.881353    199099.16   0.05354154 
   58600    298.31375   -111435.66   -110604.24    285.99244    199011.62  0.053565091 
   58700    310.84205   -111469.74   -110603.41    -374.5193     198923.6  0.053588791 
   58800    307.22368   -111464.68   -110608.43    380.60184    198842.05  0.053610769 
   58900    303.63891   -111461.52   -110615.26   -453.79447    198761.12  0.053632599 
   59000    297.55906   -111453.13   -110623.81   -387.27697    198672.75  0.053656455 
   59100     308.1479   -111492.34   -110633.51   -163.17053    198572.77  0.053683471 
   59200    313.03982   -111514.98   -110642.52   -745.26055    198431.66  0.053721645 
   59300     291.7779    -111463.9    -110650.7   -279.88752    198249.95  0.053770884 
   59400    301.97108   -111497.59   -110655.98   -102.53153    198066.43  0.053820708 
   59500    298.30681   -111488.98   -110657.59     330.2526     197895.9  0.053867085 
   59600    311.93294   -111527.56   -110658.18   -201.11861    197726.39  0.053913267 
   59700    304.82876    -111507.4   -110657.82   -284.56359    197529.56  0.053966988 
   59800      293.545   -111476.14   -110658.02    250.28813       197301  0.054029506 
   59900    310.46575   -111523.55   -110658.26    66.477985    197081.91  0.054089567 
   60000    308.59209   -111518.77   -110658.71    317.25401    196874.64  0.054146514 
   60100    299.11427   -111493.53   -110659.89    262.44057    196701.64  0.054194135 
   60200    310.94151   -111529.05   -110662.44    347.93702    196548.71  0.054236302 
   60300    299.67253   -111502.52   -110667.32    202.15276    196405.07  0.054275968 
   60400    304.05171   -111521.54   -110674.13   -85.067575    196266.47  0.054314298 
   60500    291.27051    -111494.7   -110682.91    925.05593    196113.35  0.054356703 
   60600     304.6276   -111541.14   -110692.13    33.109201    195977.96  0.054394257 
   60700    293.75594   -111520.56   -110701.84    -579.0769    195838.71  0.054432934 
   60800    294.64537   -111531.25   -110710.06   -237.81035    195691.62  0.054473846 
   60900     298.4455   -111549.34   -110717.55    576.14953    195549.17   0.05451353 
   61000    293.16443   -111539.69   -110722.63   -158.70216    195439.91  0.054544006 
   61100    298.50933   -111558.97   -110727.01    61.752293    195359.72  0.054566394 
   61200    291.64038   -111542.42    -110729.6   -265.71181    195279.87  0.054588706 
   61300    298.44556   -111560.72   -110728.93   -210.69617    195188.31  0.054614312 
   61400    287.05589   -111524.32   -110724.27    228.10944    195085.08  0.054643213 
   61500    289.00638   -111518.87    -110713.4   -51.096004    194990.68  0.054669666 
   61600     302.5968   -111537.76    -110694.4   -250.54024    194912.94   0.05469147 
   61700    300.99465   -111512.47   -110673.58    52.820312    194852.36  0.054708475 
   61800    300.07496   -111494.17   -110657.85    483.19953    194799.17  0.054723412 
   61900    304.45607   -111498.59   -110650.05    865.32454     194745.9  0.054738381 
   62000    306.02423   -111498.89   -110645.98    150.53232    194716.26  0.054746713 
   62100    303.12574   -111489.58   -110644.75   -13.237669    194701.45  0.054750879 
   62200    287.22323    -111445.6   -110645.09   -213.76664    194681.58  0.054756466 
   62300    300.98714   -111484.44   -110645.57    491.51225    194643.76  0.054767106 
   62400    302.10972   -111489.11   -110647.12   -87.264264    194641.15   0.05476784 
   62500    311.80361   -111520.26   -110651.24   -7.1773996    194646.22  0.054766414 
   62600    300.54169   -111493.62   -110655.99   -67.667872    194648.31  0.054765827 
   62700    301.65192   -111501.62    -110660.9   -247.79369    194650.97  0.054765076 
   62800    306.61852    -111522.5   -110667.94   -410.15161    194641.19   0.05476783 
   62900    299.66686   -111511.55   -110676.36     139.0224    194601.99  0.054778861 
   63000    298.59717   -111518.19   -110685.99    253.89363    194529.29  0.054799334 
   63100    289.96785   -111501.87   -110693.71   -296.02003     194441.9  0.054823963 
   63200    290.67471   -111509.48   -110699.35   -69.149641    194343.37  0.054851756 
   63300    276.46616   -111475.57   -110705.04    272.04047    194256.16  0.054876383 
   63400    300.02658   -111544.44   -110708.25    -274.9777    194188.09  0.054895619 
   63500    294.66011    -111530.9   -110709.67   -13.369162    194126.89  0.054912926 
   63600      297.845   -111538.57   -110708.46    269.67279    194065.33  0.054930344 
   63700    294.70318   -111524.14   -110702.79    206.63008    194006.03  0.054947136 
   63800    299.65223   -111527.38   -110692.23   -249.48046    193927.41   0.05496941 
   63900    309.92159   -111541.31   -110677.54   -264.37728    193848.27  0.054991851 
   64000    303.06095   -111508.74   -110664.09     51.83831    193790.39  0.055008277 
   64100    302.30106    -111494.9   -110652.37    234.35889    193748.47  0.055020178 
   64200    305.01688   -111494.08   -110643.98    14.645406    193697.89  0.055034545 
   64300    299.11092   -111471.99   -110638.35   -48.591815    193627.25  0.055054624 
   64400    304.20197   -111481.14   -110633.32    106.10022    193552.85  0.055075785 
   64500    303.69386   -111476.55   -110630.13    223.34663     193473.2  0.055098461 
   64600    302.05956   -111469.27   -110627.41    63.310418    193419.58  0.055113734 
   64700    312.28571   -111497.45   -110627.09    137.07631    193369.87  0.055127904 
   64800      320.076   -111521.98   -110629.91    81.138622    193332.21  0.055138641 
   64900    305.21629   -111487.05    -110636.4   -151.97561    193308.04  0.055145535 
   65000    299.48989   -111483.22   -110648.53    -50.87098    193280.11  0.055153504 
   65100    297.45195   -111494.09   -110665.08    55.593992    193267.68  0.055157053 
   65200    303.47184   -111529.95   -110684.15    200.87081    193257.15  0.055160056 
   65300    294.23407   -111518.31   -110698.26    58.599398    193263.31  0.055158299 
   65400    294.04806   -111525.66   -110706.13    250.95942    193266.29   0.05515745 
   65500    290.22311   -111517.67    -110708.8   -33.872198    193259.07  0.055159508 
   65600     295.2394   -111531.32   -110708.47    27.820091    193232.87  0.055166986 
   65700    298.26646   -111538.38    -110707.1    239.75941    193178.15  0.055182616 
   65800    293.85614   -111523.34   -110704.35   -32.459768    193104.21  0.055203744 
   65900    290.80419   -111508.81   -110698.32    424.10736    193021.13  0.055227504 
   66000    290.80243   -111501.36   -110690.88   -125.44564    192976.11  0.055240389 
   66100    294.12109   -111501.81   -110682.07   -231.36315    192935.83  0.055251922 
   66200    289.39793    -111477.9   -110671.33   -177.15829    192861.95  0.055273086 
   66300    292.97629   -111478.26   -110661.72   -29.567407    192769.64  0.055299555 
   66400    310.29834   -111517.41   -110652.59   -289.92736    192703.35   0.05531858 
   66500    300.48739   -111483.67    -110646.2   -174.86851    192630.49  0.055339503 
   66600     302.8533   -111486.43   -110642.36    90.729814    192526.59  0.055369366 
   66700    304.88361   -111490.16   -110640.43    166.13288    192410.45  0.055402789 
   66800     296.8851   -111467.25   -110639.81   -326.75763    192322.52  0.055428118 
   66900     293.7137   -111459.16   -110640.56     115.9682    192280.02   0.05544037 
   67000    307.49931   -111499.05   -110642.03   -92.114697    192260.83  0.055445902 
   67100    311.07056   -111510.41   -110643.44    209.49333     192263.8  0.055445048 
   67200    304.93602   -111495.71   -110645.84   -401.52006    192277.17  0.055441191 
   67300    299.67528   -111484.11    -110648.9    156.29343    192287.19  0.055438303 
   67400     300.9419   -111490.23   -110651.49    62.566952    192308.87  0.055432054 
   67500    307.33441   -111512.57   -110656.01    -269.6402    192326.87  0.055426864 
   67600    296.45831   -111486.94   -110660.69    244.93764    192316.08  0.055429976 
   67700    298.86055   -111495.79   -110662.84   -156.94647    192278.77  0.055440729 
   67800     299.6585   -111500.35   -110665.19    28.811711    192209.34  0.055460756 
   67900    298.84094   -111497.85   -110664.97   -412.20802    192127.55  0.055484367 
   68000    301.46406   -111505.41   -110665.22    19.216199    192041.21  0.055509312 
   68100    306.94287   -111520.34   -110664.87   -53.435611    191947.25  0.055536483 
   68200    306.67926   -111519.37   -110664.64    354.37952    191865.79  0.055560062 
   68300    292.84584   -111480.33   -110664.16    81.690953    191804.71  0.055577755 
   68400    294.20351   -111482.03   -110662.06    152.59721    191717.58  0.055603015 
   68500    291.90533   -111472.76    -110659.2    22.796721    191610.49  0.055634091 
   68600    305.76627   -111508.03   -110655.84     369.8899    191478.62  0.055672406 
   68700    310.13317   -111516.98   -110652.62   -142.58358    191367.41  0.055704759 
   68800    309.33418   -111513.65   -110651.52    215.24134    191290.04  0.055727288 
   68900    291.04216   -111461.25    -110650.1   -76.459407    191242.49  0.055741146 
   69000    299.25551   -111482.43   -110648.39   -33.615867    191200.27  0.055753454 
   69100    296.05556    -111471.7   -110646.57    402.35633    191128.82  0.055774296 
   69200     307.3449   -111501.17   -110644.58    121.52688    191039.17  0.055800468 
   69300    307.47462   -111498.17   -110641.22    390.45181    190936.79   0.05583039 
   69400    295.82769   -111462.27   -110637.78    372.85295    190813.86  0.055866358 
   69500    314.70039   -111511.82   -110634.73    398.29278    190670.49  0.055908364 
   69600    315.44727   -111511.63   -110632.46    134.26956    190558.11  0.055941335 
   69700    303.72029   -111478.21   -110631.73   -290.51713    190493.36  0.055960351 
   69800     308.1165   -111492.43    -110633.7    53.461391     190426.5  0.055980001 
   69900    304.44166   -111487.55   -110639.05   -209.46371    190343.15  0.056004514 
   70000    309.17494   -111509.66   -110647.97   -300.06708    190273.33  0.056025063 
   70100    304.80857   -111508.72    -110659.2   -48.011128    190234.68  0.056036447 
   70200    292.03426   -111485.53   -110671.61   -323.15457    190233.73  0.056036727 
   70300    293.44086   -111501.01   -110683.17   -330.66599    190223.19  0.056039832 
   70400    298.62397   -111524.99   -110692.71   -204.27123    190199.26  0.056046881 
   70500     298.1726   -111529.95   -110698.93    64.172363    190173.24  0.056054549 
   70600    295.44051   -111527.64   -110704.23   -260.88746    190147.88  0.056062026 
   70700    289.63688   -111515.21   -110707.97    69.332757     190130.5   0.05606715 
   70800    305.26777   -111560.23   -110709.43   -148.35718    190104.03  0.056074958 
   70900    291.98839   -111521.76   -110707.97    245.36887    190059.31  0.056088152 
   71000    301.04307   -111542.98   -110703.96   -308.49894    189983.38  0.056110569 
   71100    290.38503   -111508.32   -110699.01    162.30124    189880.42  0.056140993 
   71200    297.88425   -111521.95   -110691.73    356.81464     189748.4  0.056180055 
   71300    295.06771   -111501.21   -110678.84    1.6691191    189621.65  0.056217607 
   71400    300.48416   -111498.35   -110660.88   -181.84328    189505.16  0.056252165 
   71500    307.96125   -111497.84   -110639.54   -260.33212    189416.41   0.05627852 
   71600    314.61998   -111501.95   -110625.09    413.11587    189313.58   0.05630909 
   71700    309.32646    -111480.5   -110618.39   -33.786759    189201.63  0.056342409 
   71800    309.37885   -111479.49   -110617.23    72.041592    189114.55  0.056368352 
   71900    308.92804   -111480.31   -110619.31   -93.933231    189071.31  0.056381242 
   72000    292.29157   -111437.33   -110622.69    142.93209    189052.07  0.056386981 
   72100    308.20754   -111486.85   -110627.85   -142.83343    189012.73  0.056398717 
   72200    320.82657   -111529.76    -110635.6   -354.81056    188972.66  0.056410675 
   72300    300.42722   -111481.66   -110644.35    81.096771    188923.03  0.056425493 
   72400    309.42614    -111516.5   -110654.11   -565.98809    188891.34  0.056434962 
   72500    296.95729   -111491.81   -110664.17   -221.67607    188838.62  0.056450717 
   72600    300.53532   -111511.23   -110673.62   -305.83596    188776.36  0.056469336 
   72700    304.47122   -111528.97   -110680.39    169.40246    188702.76  0.056491359 
   72800    301.50044    -111524.8    -110684.5    463.39506    188617.15  0.056516999 
   72900    293.04038   -111502.92    -110686.2   0.78116786    188539.93  0.056540148 
   73000    298.37132   -111518.73   -110687.15   -48.858615       188466  0.056562328 
   73100    297.17421   -111514.52   -110686.27    227.93779    188426.12  0.056574297 
   73200    295.97924   -111510.16   -110685.25     493.9355    188404.93   0.05658066 
   73300    298.15155    -111513.9   -110682.94   -417.50504    188370.68  0.056590947 
   73400     302.9823   -111524.51   -110680.08   -97.558487    188333.34  0.056602168 
   73500    308.09879   -111535.15   -110676.46    519.09016       188329  0.056603471 
   73600    303.20487   -111518.71   -110673.66   -241.93554    188354.96   0.05659567 
   73700    303.93928   -111518.23   -110671.13   -4.2140922    188348.03  0.056597753 
   73800     301.0927   -111509.17   -110670.01    186.83966    188322.68  0.056605373 
   73900    308.15488   -111528.48   -110669.63    497.97055    188309.41   0.05660936 
   74000    301.50662   -111509.69   -110669.38    120.88576    188331.48  0.056602726 
   74100    292.00733   -111483.24    -110669.4   -355.74461    188371.02  0.056590847 
   74200    307.34256   -111527.21   -110670.63    -123.0811    188392.51  0.056584391 
   74300    300.71025   -111511.63   -110673.53    170.85698    188370.96  0.056590865 
   74400     303.2302    -111522.4   -110677.28    249.55163    188347.61   0.05659788 
   74500    304.90909   -111530.87   -110681.07   -120.53254    188352.88  0.056596295 
   74600    292.33623   -111501.39   -110686.63   -115.88181    188390.49  0.056584998 
   74700    293.40123    -111509.2   -110691.48   -80.793666    188434.31  0.056571837 
   74800    297.82776   -111525.28   -110695.22    218.32755    188479.17  0.056558373 
   74900    298.15526   -111529.94   -110698.96    543.10843    188519.89  0.056546157 
   75000    300.27071   -111538.58   -110701.71    91.497793    188539.47  0.056540284 
   75100    281.09124   -111486.86   -110703.44   -149.28003    188541.54  0.056539663 
   75200    300.27901   -111538.68   -110701.78    43.849118    188546.89  0.056538059 
   75300    293.60258   -111515.89   -110697.61   -410.30617    188552.31  0.056536434 
   75400    297.26103   -111518.43   -110689.95    561.90351    188556.49  0.056535182 
   75500    293.04093   -111494.51   -110677.79    308.31485    188571.56  0.056530663 
   75600    295.34735   -111488.47   -110665.32    -230.4953     188590.4  0.056525016 
   75700    299.29874   -111489.37   -110655.21   -391.76837    188575.21   0.05652957 
   75800    305.80825   -111499.52   -110647.21   -382.00032    188543.76  0.056538999 
   75900    296.65223   -111466.44   -110639.65   -376.68989    188484.92   0.05655665 
   76000    306.12237   -111486.37   -110633.19    281.42827    188407.95  0.056579753 
   76100    305.48456   -111481.01    -110629.6    -151.1039    188327.49  0.056603927 
   76200    296.71213   -111455.68   -110628.73    182.26331    188248.95  0.056627543 
   76300    312.24005   -111500.48   -110630.25   -206.08641    188206.46  0.056640325 
   76400    303.39319   -111479.27    -110633.7    47.521824    188149.46  0.056657485 
   76500    307.47231   -111495.79   -110638.85   -215.24733    188043.86  0.056689302 
   76600    301.25447   -111489.12   -110649.51   -98.186003    187913.48  0.056728637 
   76700    306.16776   -111520.08   -110666.77    449.59288     187770.5  0.056771832 
   76800    291.02552   -111499.74   -110688.63    141.49049    187661.61  0.056804775 
   76900    295.03523   -111529.42   -110707.14   -213.19923    187580.08  0.056829464 
   77000    277.86644   -111491.19   -110716.76   -44.488918    187492.88  0.056855896 
   77100    286.10356   -111518.27   -110720.88    512.05834    187389.58  0.056887238 
   77200    293.11116   -111538.07   -110721.15   -309.11736    187299.16  0.056914699 
   77300    287.27954   -111520.53   -110719.86   -45.222251    187171.59  0.056953489 
   77400    292.13273   -111529.88   -110715.69    260.96547    187019.36   0.05699985 
   77500    290.77151   -111519.52   -110709.13   -165.58151    186887.56  0.057040049 
   77600    288.47693   -111504.67   -110700.67   -277.51667    186791.87  0.057069268 
   77700    304.62366   -111539.29   -110690.29    329.47916    186717.33  0.057092051 
   77800    301.47693   -111520.62   -110680.38    271.42688    186658.31  0.057110102 
   77900    303.11697   -111516.42   -110671.62   -57.346456     186609.6  0.057125012 
   78000    302.55488   -111508.08   -110664.84    505.80263    186539.38  0.057146515 
   78100    304.18362   -111508.19   -110660.42    436.57126    186460.77  0.057170606 
   78200    310.35983   -111521.87   -110656.88   -349.87568    186387.65  0.057193034 
   78300    308.03644   -111514.52   -110656.01   -261.60899    186324.75  0.057212341 
   78400    311.09243   -111524.65   -110657.62   -325.65951    186265.41  0.057230567 
   78500    298.45696   -111493.23   -110661.42    -206.7403    186211.12  0.057247255 
   78600    301.07895   -111506.31   -110667.19    162.63724    186161.36  0.057262556 
   78700    301.93303   -111517.66   -110676.15    95.857203    186118.34  0.057275791 
   78800    298.83053   -111523.68   -110690.82   -373.14876     186090.2  0.057284452 
   78900    295.00018      -111534   -110711.82    211.10625    186052.66  0.057296011 
   79000    287.65552    -111530.9   -110729.19   -182.70598    185998.47  0.057312703 
   79100    276.89776   -111510.68   -110738.95    453.72382    185956.46  0.057325652 
   79200    291.80148   -111554.82   -110741.56     176.5436    185917.72  0.057337598 
   79300    293.61564   -111558.73    -110740.4   -577.23177    185890.46  0.057346007 
   79400    291.49422   -111548.99   -110736.58    277.14335       185850  0.057358491 
   79500    288.65229   -111535.18   -110730.69   -275.97488    185805.19  0.057372324 
   79600     292.8158   -111538.72   -110722.63   -104.84798    185731.72  0.057395019 
   79700    293.72185   -111532.84   -110714.22   -151.94419     185625.9  0.057427736 
   79800    296.11234   -111530.31   -110705.03   -88.746798    185495.62  0.057468072 
   79900    295.01753   -111516.47   -110694.24    50.436863    185356.26  0.057511277 
   80000    293.58043   -111503.34   -110685.11     129.9672    185234.43  0.057549105 
   80100    297.73862   -111506.64   -110676.82   -433.09573    185151.37   0.05757492 
   80200    304.97888   -111520.03   -110670.04    103.89494       185070  0.057600233 
   80300    297.09912   -111493.97   -110665.94    -185.9069    184965.43    0.0576328 
   80400    303.65601   -111510.29   -110663.98    14.749083    184850.16  0.057668738 
   80500    303.02424   -111506.56   -110662.02    226.03773    184722.21  0.057708681 
   80600    296.25108   -111487.32   -110661.65   -465.53463    184601.34  0.057746469 
   80700    306.40167   -111515.97   -110662.01    517.16831    184483.62  0.057783315 
   80800     304.7069   -111512.65   -110663.42    202.62102    184384.77  0.057814294 
   80900    300.08869   -111502.28   -110665.92     202.1704    184324.48  0.057833203 
   81000    295.38394   -111492.59   -110669.34   -119.37186    184263.97  0.057852197 
   81100    307.48663   -111532.36   -110675.37    300.74767    184195.29  0.057873768 
   81200    288.24872   -111488.46    -110685.1    323.02098    184143.48  0.057890049 
   81300    294.42476   -111518.62   -110698.04   -335.18739    184092.26  0.057906158 
   81400    287.84756   -111515.54   -110713.29   -371.25928    184029.02  0.057926056 
   81500    296.41763   -111554.98   -110728.84    575.23304    183946.48   0.05795205 
   81600    288.84843   -111546.39   -110741.36   -28.479757    183877.52  0.057973784 
   81700    289.00555   -111554.01   -110748.54    172.59032    183809.15  0.057995348 
   81800    287.26222   -111552.68   -110752.07   -445.62023     183747.9   0.05801468 
   81900    281.05273   -111534.81    -110751.5    107.93456    183672.22  0.058038584 
   82000    290.59476   -111557.35   -110747.44    -289.3759     183598.6  0.058061854 
   82100    296.01233    -111564.5   -110739.49   -169.27208    183522.93  0.058085796 
   82200     285.4805   -111525.31   -110729.66    64.180301    183458.15  0.058106305 
   82300    291.39979   -111531.96   -110719.81    114.12005    183389.89  0.058127933 
   82400    297.76938   -111540.61   -110710.71    159.53711    183327.49  0.058147719 
   82500    298.06772    -111534.3   -110703.57    162.17464    183289.71  0.058159704 
   82600    297.21354   -111526.01   -110697.66   -52.799639     183279.2  0.058163038 
   82700    294.03646   -111512.76   -110693.27   -370.74289    183278.74  0.058163184 
   82800      292.253   -111503.82   -110689.29   -349.98625    183248.81  0.058172685 
   82900    309.64401   -111548.28   -110685.29     279.0118    183203.31  0.058187132 
   83000    297.46244   -111510.17   -110681.12   -566.39627    183186.48  0.058192478 
   83100    291.91038   -111490.88   -110677.31   -208.73539    183158.48  0.058201374 
   83200    292.18049   -111487.03   -110672.71   -392.06297    183120.78  0.058213356 
   83300    299.63553   -111501.93   -110666.83   -176.24931    183085.08  0.058224708 
   83400    292.94597   -111476.14   -110659.69   -387.81488    183070.29  0.058229414 
   83500    296.65741    -111481.1    -110654.3   -514.32387    183060.45  0.058232542 
   83600    300.11926   -111482.31   -110645.86   -315.47083    183069.03  0.058229813 
   83700    303.53099   -111483.96   -110638.01    279.35815    183074.01   0.05822823 
   83800    318.75136   -111519.06   -110630.69   -315.88626    183062.55  0.058231875 
   83900    310.69027   -111491.72   -110625.81   -379.02651    183024.13  0.058244097 
   84000    321.02889   -111518.78   -110624.06     110.6259    182969.09  0.058261619 
   84100    303.74486   -111473.82   -110627.26    237.58211    182918.34  0.058277783 
   84200    303.83556   -111483.62   -110636.81   -377.58084    182872.96  0.058292244 
   84300    302.23499   -111494.16   -110651.81    622.68995     182813.1  0.058311331 
   84400    302.97981   -111514.15   -110669.73   -74.705987    182710.63  0.058344036 
   84500     287.3988   -111484.92   -110683.93   -102.09971    182580.65   0.05838557 
   84600    287.74256   -111496.46   -110694.51   -239.21929    182420.51  0.058436824 
   84700    294.35164   -111520.14   -110699.76   -319.17062    182232.08   0.05849725 
   84800    291.72674   -111514.99   -110701.93    155.83059    182016.44  0.058566551 
   84900    296.50097   -111526.28   -110699.92    87.170518    181811.69  0.058632508 
   85000    304.16228   -111545.35   -110697.63   -131.97176     181621.6  0.058693875 
   85100    304.62074    -111542.7   -110693.71   -43.286464    181422.45  0.058758304 
   85200    289.69707   -111496.98   -110689.58   -103.40489    181210.35  0.058827077 
   85300    298.59809   -111517.05   -110684.84   -348.62099    181020.31  0.058888836 
   85400    299.88179   -111513.02   -110677.24   -124.98832    180857.88  0.058941726 
   85500    300.95787   -111506.02   -110667.23    673.73343    180737.58  0.058980958 
   85600    308.76412   -111515.59   -110655.04   -447.73725    180641.85  0.059012213 
   85700      315.035    -111519.7   -110641.68   -44.162933    180527.84  0.059049482 
   85800    312.49861   -111499.97   -110629.02    112.37102    180425.96  0.059082825 
   85900    319.42414   -111510.14   -110619.89    342.37939     180338.7  0.059111412 
   86000    320.12668   -111507.76   -110615.55   -493.20888    180270.28  0.059133848 
   86100    301.48512   -111457.22   -110616.96    -25.91069    180163.88  0.059168771 
   86200    308.88314   -111484.92   -110624.05   -84.841451    180035.45  0.059210978 
   86300    305.97701   -111491.87    -110639.1   -184.79761    179901.93  0.059254926 
   86400    299.51722   -111497.45   -110662.67   -265.90311    179794.51  0.059290328 
   86500     300.0573   -111520.94   -110684.66   -251.60218    179665.11   0.05933303 
   86600    300.33363   -111535.65   -110698.61    251.54031    179522.82  0.059380058 
   86700    301.73656   -111546.28   -110705.32    199.21869    179377.07  0.059428304 
   86800     296.4675   -111535.15   -110708.88    54.831034    179232.29  0.059476312 
   86900    300.80725   -111548.25   -110709.89    14.087173    179094.86   0.05952195 
   87000    294.27733   -111529.09   -110708.92    532.72367    178974.13  0.059562101 
   87100    290.40513    -111514.6   -110705.22   -131.66802    178888.54    0.0595906 
   87200    298.87642    -111531.6   -110698.61    34.244943    178819.68  0.059613547 
   87300     295.8852   -111515.13   -110690.48    1.9412362    178756.46  0.059634629 
   87400    294.87848   -111504.65   -110682.81   -126.22501    178701.79  0.059652874 
   87500     295.9208   -111498.61   -110673.87   -532.27176     178639.3  0.059673743 
   87600     298.7551    -111496.4   -110663.75    407.95306    178574.25  0.059695479 
   87700    307.32952   -111511.93   -110655.39   -81.207774     178500.3  0.059720209 
   87800     309.7494    -111511.4   -110648.11   -24.238397    178421.44  0.059746605 
   87900    293.88526   -111462.47    -110643.4   -14.271379    178342.64  0.059773003 
   88000    319.34539   -111531.58   -110641.54   -180.93218    178245.56  0.059805559 
   88100    309.03386   -111503.17   -110641.88   -313.67132    178148.07  0.059838286 
   88200    309.72902   -111507.55   -110644.32   -47.711919    178044.76  0.059873007 
   88300    298.65885   -111482.45   -110650.07   -90.595112    177913.38  0.059917222 
   88400    303.22713   -111505.19   -110660.08    148.55915    177753.17  0.059971226 
   88500    299.64588   -111513.54   -110678.41    9.9818092    177561.84  0.060035847 
   88600    295.32147   -111521.08      -110698   -118.44269    177342.84  0.060109986 
[...]
  978700    295.45341   -111653.72   -110830.27   -6200.9545    9761.7798    1.0920217 
  978800     303.5969   -111679.23   -110833.08    354.48532    9761.2815    1.0920774 
  978900    296.35682   -111664.13   -110838.16    4648.2647    9763.6137    1.0918166 
  979000     297.1844    -111671.4   -110843.13    4573.5641    9768.0218    1.0913239 
  979100    302.86862   -111693.33   -110849.21   -4582.7715    9772.6211    1.0908103 
  979200    292.36561   -111670.28   -110855.44    683.81314    9776.1276     1.090419 
  979300    292.81519   -111679.65   -110863.55    272.14047    9780.2183    1.0899629 
  979400    291.14727   -111683.57   -110872.13   -543.99185    9787.1978    1.0891856 
  979500     290.3476   -111689.35   -110880.13   -2518.2374    9796.9001     1.088107 
  979600    293.12648   -111702.92   -110885.96   -217.02921    9806.5918    1.0870316 
  979700    284.46917   -111681.98   -110889.15   -5697.1174    9814.7413     1.086129 
  979800    289.41543   -111696.27   -110889.65   -894.89672    9821.4386    1.0853884 
  979900    282.31598   -111672.99   -110886.16   -8028.6428    9829.1934    1.0845321 
  980000    287.91108   -111679.53   -110877.11   -2092.6852    9837.1171    1.0836585 
  980100    298.60129   -111694.85   -110862.64   -1155.0167    9844.5021    1.0828456 
  980200    304.40737   -111693.82   -110845.42    4599.2209     9850.847    1.0821481 
  980300     308.5894   -111692.25    -110832.2    5272.8361     9858.242    1.0813363 
  980400    295.46939   -111644.26   -110820.77    5464.1637    9866.5576     1.080425 
  980500    298.35235   -111645.52   -110813.99   -557.33239    9874.6798    1.0795363 
  980600    308.34293   -111670.04   -110810.67    4510.0842    9882.4688    1.0786855 
  980700    296.54373   -111635.75   -110809.27    4423.5592    9889.4333    1.0779258 
  980800    307.80459   -111668.08   -110810.21   -1487.3032    9896.7239    1.0771317 
  980900    308.52682   -111671.36   -110811.48    690.44665    9903.2782    1.0764189 
  981000    298.60314    -111646.4   -110814.18    987.95792    9909.9249    1.0756969 
  981100    300.55717   -111654.93   -110817.26    364.31837    9917.1462    1.0749136 
  981200    300.42824   -111659.09   -110821.78   -6079.2746    9925.7807    1.0739785 
  981300    300.43711   -111663.32   -110825.98   -2993.8659    9934.0084     1.073089 
  981400    297.97674   -111662.98   -110832.51   -3014.3409    9941.0479    1.0723291 
  981500    303.99087   -111689.88   -110842.64    159.22304     9945.943    1.0718014 
  981600    295.54865   -111678.88   -110855.17   -10115.359    9949.3292    1.0714366 
  981700    293.08299   -111686.25   -110869.41   -4785.0118    9950.8871    1.0712689 
  981800     291.8109   -111695.44   -110882.14    1679.7121    9950.8128    1.0712769 
  981900    294.48734   -111711.32   -110890.57    402.01768    9950.9824    1.0712586 
  982000    292.16722    -111709.3   -110895.01    5543.3416    9951.5999    1.0711921 
  982100    282.65004   -111681.79   -110894.03   -15495.661    9952.6294    1.0710813 
  982200    280.89146   -111672.56    -110889.7   -9131.2273    9951.3192    1.0712223 
  982300    295.40983   -111704.07   -110880.75   -711.22324      9947.09    1.0716778 
  982400    294.26707   -111688.48   -110868.34    3861.2657    9940.8382    1.0723518 
  982500    306.74295   -111707.25   -110852.34   -6702.5571    9934.6896    1.0730154 
  982600    291.50723   -111650.74   -110838.29    4905.7886    9926.9807    1.0738487 
  982700    290.81873   -111637.28   -110826.75   -5613.2994    9917.1406    1.0749142 
  982800    311.27258   -111687.38   -110819.85    8671.1858    9905.3033    1.0761988 
  982900    306.18135   -111670.84   -110817.49    745.38619     9893.774    1.0774529 
  983000    302.70139   -111660.52   -110816.88   -6430.0098    9882.4587    1.0786866 
  983100    304.84249    -111666.7   -110817.09    16952.119    9869.7423    1.0800764 
  983200    293.95534   -111637.07    -110817.8    5113.6907    9856.7473    1.0815003 
  983300    309.45505   -111682.19   -110819.72    1998.3104    9844.6522     1.082829 
  983400    303.19405   -111667.31   -110822.29   -8680.3481    9832.8262    1.0841314 
  983500    299.90436   -111662.23   -110826.38    9810.1228     9820.578    1.0854835 
  983600    299.77862   -111668.04   -110832.54     4753.794    9808.2501    1.0868478 
  983700    293.47179   -111655.42    -110837.5   -4666.7063    9796.0585    1.0882005 
  983800     290.9655   -111652.74    -110841.8   -1716.1064    9785.1831    1.0894099 
  983900    300.92325   -111683.64   -110844.95    -6188.792    9776.1311    1.0904186 
  984000    291.01584    -111660.2   -110849.12    1639.9312     9768.965    1.0912185 
  984100     297.9726   -111684.56   -110854.09   -3048.4526    9762.4026     1.091952 
  984200    294.75458   -111682.04   -110860.54    4761.0989    9755.6203    1.0927112 
  984300    292.68438   -111682.58   -110866.85    13785.962    9748.9989    1.0934533 
  984400    290.31005   -111681.77   -110872.66    8124.3165    9744.0246    1.0940115 
  984500    299.22089   -111712.16   -110878.22    4099.6825    9740.5932    1.0943969 
  984600    303.64629   -111730.37   -110884.09    -1388.592    9737.9815    1.0946905 
  984700    283.77215   -111680.12   -110889.23   -2545.8944    9734.8401    1.0950437 
  984800    291.26606   -111704.21   -110892.44    1189.3512     9730.451    1.0955376 
  984900    293.50027   -111711.11   -110893.11    11933.106    9725.3949    1.0961072 
  985000    291.71897   -111703.25   -110890.22    3497.4118    9720.1934    1.0966937 
  985100    291.06686    -111693.4   -110882.18    2834.9533     9714.312    1.0973577 
  985200     298.4611   -111700.44   -110868.61    660.77238    9708.0312    1.0980677 
  985300    296.14154   -111678.83   -110853.47    17.111431    9700.6185    1.0989068 
  985400    307.59385   -111696.11   -110838.83   -6516.2087    9692.7636    1.0997973 
  985500    309.81934   -111691.23   -110827.74    6424.6602     9685.319    1.1006427 
  985600    306.42291   -111675.22    -110821.2   -7334.5842    9679.8318    1.1012666 
  985700    298.34678   -111648.99   -110817.48   -5345.6155    9675.1935    1.1017945 
  985800    306.08196   -111667.45   -110814.38    6483.8961    9670.0007    1.1023862 
  985900    300.65428   -111650.82   -110812.88    3494.3416    9664.4251    1.1030222 
  986000    304.18948   -111659.91   -110812.12   -1041.9115    9657.8398    1.1037743 
  986100    302.71861    -111657.2   -110813.51    -4511.177    9652.1654    1.1044232 
  986200     307.9409   -111675.95    -110817.7   -73.313672    9647.6157     1.104944 
  986300    307.99429    -111682.8   -110824.41    11571.457    9644.6878    1.1052795 
  986400    300.22195   -111669.53    -110832.8    1405.4358    9643.4192    1.1054249 
  986500    293.19954   -111661.82   -110844.65   -699.99224    9642.9312    1.1054808 
  986600     297.3647   -111687.46   -110858.69   -161.03046    9642.5133    1.1055287 
  986700    286.53569   -111670.42   -110871.83   -7010.7582    9641.3342    1.1056639 
  986800    288.03215   -111685.66    -110882.9   -6832.7899    9640.8917    1.1057147 
  986900    287.93756    -111693.4    -110890.9    6048.0139     9640.408    1.1057701 
  987000    285.62421    -111692.1   -110896.05   -10872.071     9640.253    1.1057879 
  987100    285.98673   -111694.04   -110896.98    5712.8325    9639.7684    1.1058435 
  987200    291.65182   -111705.59   -110892.74   -7189.2392    9639.9191    1.1058262 
  987300    297.14275   -111714.97   -110886.82    3452.2554     9640.147    1.1058001 
  987400    296.57865   -111704.52   -110877.94   -740.55012    9641.0336    1.1056984 
  987500    299.56325   -111703.97   -110869.07   -6436.0739    9641.9992    1.1055877 
  987600    294.38558   -111684.58   -110864.11   -713.11646    9643.6981    1.1053929 
  987700    297.97988   -111690.99    -110860.5    5401.9198    9645.7695    1.1051555 
  987800     299.3298   -111691.46   -110857.21   -781.34369    9647.1746    1.1049945 
  987900    300.83489   -111692.27   -110853.83   -3819.2323    9647.8589    1.1049162 
  988000    298.03195   -111680.43    -110849.8    -3104.101    9647.8195    1.1049207 
  988100    290.15991   -111653.58   -110844.89    3615.3377    9647.4503     1.104963 
  988200    299.23521   -111675.13   -110841.15   -841.40485    9648.5288    1.1048395 
  988300    290.51184   -111645.13   -110835.46   -3190.0291    9651.3074    1.1045214 
  988400    300.54244   -111667.03    -110829.4   -11641.694    9656.4187    1.1039367 
  988500    303.55042   -111669.15   -110823.14    6384.7246    9662.7832    1.1032096 
  988600    299.45981    -111651.4   -110816.78   -2401.3661    9669.1712    1.1024808 
  988700    299.04845   -111645.27   -110811.81   -2587.1203    9676.3226     1.101666 
  988800     310.0879   -111672.06   -110807.83    833.23497    9683.9843    1.1007944 
  988900    311.97296   -111673.07   -110803.58    3665.8361    9692.6607     1.099809 
  989000     306.4127   -111654.56   -110800.57    2090.7152    9701.2956    1.0988301 
  989100    309.60709   -111661.91   -110799.02   -1570.0388    9709.2496    1.0979299 
  989200    304.37208   -111648.78   -110800.47    2197.8413     9716.982    1.0970562 
  989300    301.40119   -111645.86   -110805.83   -6124.2204    9724.8197     1.096172 
  989400    302.20989   -111658.22   -110815.94   -3760.0964    9732.3217    1.0953271 
  989500    309.80876   -111695.52   -110832.06    5548.4325    9738.9182    1.0945852 
  989600    293.84605   -111667.21   -110848.24   -4489.5303    9746.1675     1.093771 
  989700     295.0491   -111682.95   -110860.63    4841.8773    9753.5311    1.0929452 
  989800    294.81022   -111690.33   -110868.68   -2308.8179    9760.0012    1.0922207 
  989900    287.21134   -111672.78    -110872.3   -77.544822    9765.6717    1.0915865 
  990000    300.60866   -111711.56   -110873.74    4596.6884    9770.3206    1.0910671 
  990100    285.75947   -111668.99   -110872.56    5896.4489    9774.7175    1.0905763 
  990200    291.08981   -111680.77   -110869.49   -4432.1573    9780.5039    1.0899311 
  990300    279.47452   -111641.13   -110862.22   -2138.7364    9787.8844    1.0891092 
  990400    298.06334   -111682.09   -110851.37    7731.6192    9795.8471    1.0882239 
  990500    292.19913   -111654.87   -110840.49    7637.9604    9804.2182    1.0872948 
  990600    298.36282   -111661.13   -110829.57   -1348.7835    9812.7181     1.086353 
  990700     304.2046    -111667.8   -110819.97    2600.1767     9820.092    1.0855372 
  990800    302.83452   -111658.54   -110814.52    4542.9993    9827.0535    1.0847682 
  990900    302.91846   -111656.38   -110812.13    -726.3022    9834.8084    1.0839129 
  991000    294.41978   -111631.88   -110811.31   -273.57208     9843.325     1.082975 
  991100    294.94884   -111633.46   -110811.42   -673.22435    9851.3347    1.0820945 
  991200    297.07498   -111641.45   -110813.48    3955.8714    9859.5876    1.0811888 
  991300    308.28307   -111676.15   -110816.94    912.50383    9869.3673    1.0801174 
  991400    296.90078   -111649.28    -110821.8   -1729.5285     9879.448    1.0790153 
  991500    304.54259    -111675.1   -110826.32    5093.8051    9887.8347    1.0781001 
  991600    300.25393   -111668.26   -110831.44   -6876.5441    9896.5565    1.0771499 
  991700    293.69261   -111654.25   -110835.72   -11404.383     9906.224    1.0760988 
  991800    290.82712   -111650.97   -110840.42     2479.124    9915.2108    1.0751234 
  991900    297.71315   -111672.77   -110843.03   -227.20338    9923.0588    1.0742731 
  992000    302.56692    -111688.2   -110844.93    1920.8421    9929.3127    1.0735965 
  992100    296.90269   -111672.51   -110845.02   -3847.8332    9935.2276    1.0729573 
  992200    299.11373   -111676.59   -110842.94   -7800.8198    9940.6491    1.0723722 
  992300    292.25067   -111652.75   -110838.23    -1894.216    9945.8537     1.071811 
  992400    298.80114   -111665.16   -110832.39   -770.03963    9949.2215    1.0714482 
  992500    302.34686   -111665.43   -110822.78   -3813.9743    9952.0101     1.071148 
  992600    297.99256   -111641.95   -110811.43    12345.084    9954.6678     1.070862 
  992700    305.52141   -111651.34   -110799.84   -7998.3686    9958.0775    1.0704953 
  992800    317.81709   -111673.95   -110788.17   -11680.639      9960.56    1.0702285 
  992900    300.53985   -111617.83   -110780.21   -851.33063    9963.8341    1.0698768 
  993000    304.78564    -111624.9   -110775.45    2922.9989    9969.4968    1.0692691 
  993100    313.28302      -111647   -110773.86     3454.394    9976.0439    1.0685674 
  993200    307.37933   -111631.03   -110774.35   -14205.546    9980.8703    1.0680507 
  993300    309.41899   -111641.75   -110779.38    2958.3147    9984.1321    1.0677018 
  993400    310.74532   -111654.06      -110788   -2559.7582     9987.269    1.0673664 
  993500     303.1997   -111646.12   -110801.08    10726.989    9990.2328    1.0670497 
  993600    302.43014   -111659.32   -110816.43   -402.80493    9993.0588     1.066748 
  993700    301.28132   -111670.18    -110830.5   -5395.0027    9994.8356    1.0665584 
  993800    296.73879   -111668.48   -110841.45   -631.92955     9995.032    1.0665374 
  993900    302.79489   -111691.47   -110847.56     829.0867    9993.5987    1.0666904 
  994000    295.85022   -111674.61   -110850.06    4477.4792    9992.1198    1.0668482 
  994100    302.16345   -111693.47   -110851.32   -7016.1556    9990.6921    1.0670007 
  994200    298.36021   -111683.03   -110851.49   -203.20724    9987.9733    1.0672911 
  994300    287.92067   -111652.82   -110850.37   -5370.0457    9983.5165    1.0677676 
  994400    294.14674   -111667.55   -110847.74    7188.9515      9977.83    1.0683761 
  994500    298.66159   -111675.18   -110842.79   -6995.7782    9972.4907    1.0689481 
  994600    300.08975   -111673.35   -110836.98    8230.7576    9967.1214     1.069524 
  994700     297.1829   -111658.56   -110830.29   -4749.0037    9962.0767    1.0700656 
  994800    297.37482   -111653.38   -110824.58   -7799.9399    9954.7403    1.0708542 
  994900    309.57614   -111681.73   -110818.93    -4597.938    9945.8028    1.0718165 
  995000    304.00493   -111660.91   -110813.63    10041.934    9938.1409    1.0726428 
  995100    311.47759   -111676.87   -110808.77    3416.2377    9932.0466     1.073301 
  995200    307.12467   -111659.84   -110803.87    254.23327    9925.4191    1.0740177 
  995300    302.95622   -111644.11   -110799.75   -2080.9865    9917.8258    1.0748399 
  995400    303.58363   -111641.28   -110795.17   -4536.4433    9909.0108    1.0757961 
  995500    307.64664   -111650.54   -110793.11    2950.0844     9898.737    1.0769127 
  995600    306.01134   -111644.59   -110791.72    7314.4224    9888.5969     1.078017 
  995700    306.38937   -111647.28   -110793.35   -4424.8591    9879.8788    1.0789682 
  995800    320.68938   -111691.01   -110797.23   -3641.9998    9871.4906    1.0798851 
  995900    312.63566   -111677.93    -110806.6    6713.9482    9863.2571    1.0807865 
  996000    305.22216   -111669.61   -110818.94    4907.6443    9855.4735    1.0816401 
  996100    297.77639   -111661.03   -110831.11   -2538.9588    9847.9182    1.0824699 
  996200     300.8794   -111679.33   -110840.76    4598.0252    9838.7031    1.0834838 
  996300    290.14384   -111656.81   -110848.16   -1006.1181     9829.034    1.0845496 
  996400    285.00908   -111647.44    -110853.1    7792.0001    9819.9988    1.0855475 
  996500    301.74669   -111697.56   -110856.58    2552.9968    9811.5131    1.0864864 
  996600    296.96665      -111687   -110859.34   -5833.8461    9804.9689    1.0872115 
  996700    286.86316    -111659.2    -110859.7    6038.2705    9799.9935    1.0877635 
  996800    295.05465    -111681.3   -110858.97   -804.14062    9796.9871    1.0880973 
  996900    291.81764   -111669.14   -110855.83    2729.4343    9796.2455    1.0881797 
  997000    297.49544   -111682.34    -110853.2   -2251.7808    9795.5624    1.0882556 
  997100     304.4387   -111697.09    -110848.6   -2826.3138    9793.3028    1.0885067 
  997200    309.09056   -111704.33   -110842.88   -1283.3986     9791.074    1.0887544 
  997300    301.19455   -111674.49   -110835.04    6233.5797    9790.6611    1.0888004 
  997400    307.75953   -111684.02   -110826.27   -11965.919    9790.7278    1.0887929 
  997500    309.26663   -111678.18   -110816.24   -6217.4986    9789.3081    1.0889509 
  997600    301.88439   -111646.59   -110805.22   -2585.3877    9786.7319    1.0892375 
  997700    301.82879   -111637.21      -110796   -4944.7565    9784.0473    1.0895364 
  997800    309.04615   -111650.06   -110788.73   -3439.1286    9781.2847    1.0898441 
  997900    307.66031   -111642.31   -110784.84    3816.9125    9778.7632    1.0901251 
  998000    298.35814   -111615.79   -110784.25   -5360.0687    9777.0053    1.0903211 
  998100    319.89217   -111677.39   -110785.83    4539.8974    9775.4089    1.0904992 
  998200    312.93938   -111664.94   -110792.76    3670.6268    9773.8105    1.0906775 
  998300    312.29767   -111674.23   -110803.84    7664.1873    9772.3429    1.0908413 
  998400     303.7459   -111666.38   -110819.82   -4180.4768     9770.337    1.0910653 
  998500    304.47904   -111687.47   -110838.87   -2405.2138    9766.5335    1.0914902 
  998600    291.30387   -111666.33   -110854.45    902.59547    9763.1166    1.0918722 
  998700    298.79155   -111696.18   -110863.43    3868.7336    9760.4657    1.0921687 
  998800    299.25137   -111700.83    -110866.8    4337.6138    9757.8999    1.0924559 
  998900    281.62464   -111651.21    -110866.3    1741.9231    9755.9276    1.0926768 
  999000    296.65388   -111689.22   -110862.43   -3507.7824    9753.7667    1.0929188 
  999100    296.36167   -111682.52   -110856.55    2267.2626    9749.0998     1.093442 
  999200    295.10838   -111671.61   -110849.12    472.98625    9742.9063    1.0941371 
  999300     305.1395   -111692.27   -110841.83    1750.4669     9736.679    1.0948369 
  999400     305.8557   -111686.61   -110834.17    6068.0742    9729.6404    1.0956289 
  999500    290.49518   -111637.98   -110828.35   -3136.5364     9721.815    1.0965108 
  999600    297.99248   -111651.76   -110821.24    -3190.095    9712.8584     1.097522 
  999700    309.25281      -111677   -110815.09   -1735.8348    9703.3856    1.0985934 
  999800    305.31023   -111661.49   -110810.57   -7146.8512    9694.5012    1.0996002 
  999900    303.53268   -111653.59   -110807.62   -3348.9111    9686.2471    1.1005372 
 1000000    304.89854   -111658.07    -110808.3   -708.40513    9677.9792    1.1014774 
Loop time of 100969 on 1 procs for 1000000 steps with 936 atoms

Performance: 0.214 ns/day, 112.187 hours/ns, 9.904 timesteps/s
99.9% CPU use with 1 MPI tasks x no OpenMP threads

MPI task timing breakdown:
Section |  min time  |  avg time  |  max time  |%varavg| %total
---------------------------------------------------------------
Pair    | 83081      | 83081      | 83081      |   0.0 | 82.28
Neigh   | 324.55     | 324.55     | 324.55     |   0.0 |  0.32
Comm    | 21.673     | 21.673     | 21.673     |   0.0 |  0.02
Output  | 1.8066     | 1.8066     | 1.8066     |   0.0 |  0.00
Modify  | 17539      | 17539      | 17539      |   0.0 | 17.37
Other   |            | 1.088      |            |       |  0.00

Nlocal:    936 ave 936 max 936 min
Histogram: 1 0 0 0 0 0 0 0 0 0
Nghost:    8740 ave 8740 max 8740 min
Histogram: 1 0 0 0 0 0 0 0 0 0
Neighs:    570847 ave 570847 max 570847 min
Histogram: 1 0 0 0 0 0 0 0 0 0

Total # of neighbors = 570847
Ave neighs/atom = 609.879
Neighbor list builds = 10000
Dangerous builds not checked

Please see the log.cite file for references relevant to this simulation

Total wall time: 28:02:48
