LAMMPS (09 Jan 2020)
package omp 0
WARNING: OpenMP support not enabled during compilation; using 1 thread only. (../fix_omp.cpp:125)
units			real
atom_style		charge
read_data input_files/d820000_lmps.dat
  orthogonal box = (-15 -15 -15) to (50 50 50)
  1 by 1 by 1 MPI processor grid
  reading atoms ...
  936 atoms
  read_data CPU = 0.0012331 secs
reset_timestep		0

pair_style              reax/c lmp_control lgvdw yes
pair_coeff              * * ffield C H O N

neighbor		2.5 bin
neigh_modify		delay 0 every 5 check no

fix			qeq all qeq/reax 1 0.0 10.0 1e-6 reax/c
fix			bonds all reax/c/bonds 500 bonds.reaxc
fix			npt all npt temp 300 300 100 iso 1.0 1.0 2000
fix 1 all reax/c/species 10 10 100 species.out cutoff 1 4 0.25
WARNING: Resetting reneighboring criteria for fix reax/c/species (../fix_reaxc_species.cpp:97)


thermo			100
thermo_style            custom step temp pe etotal press vol density
thermo_modify           flush yes

timestep		0.25

dump			1 all custom 1000 dump/dump.reax.npt.* id type xu yu zu
restart			500 restart.npt300 restart.npt300
run 1000000
Last active /omp style is pair_style reax/c/omp
Neighbor list info ...
  update every 100 steps, delay 0 steps, check no
  max neighbors/atom: 2000, page size: 100000
  master list distance cutoff = 12.5
  ghost atom cutoff = 12.5
  binsize = 6.25, bins = 11 11 11
  2 neighbor lists, perpetual/occasional/extra = 2 0 0
  (1) pair reax/c/omp, perpetual
      attributes: half, newton off, ghost, omp
      pair build: half/bin/newtoff/ghost/omp
      stencil: half/ghost/bin/3d/newtoff
      bin: standard
  (2) fix qeq/reax/omp, perpetual, copy from (1)
      attributes: half, newton off, ghost
      pair build: copy
      stencil: none
      bin: none
Per MPI rank memory allocation (min/avg/max) = 69.35 | 69.35 | 69.35 Mbytes
Step Temp PotEng TotEng Press Volume Density 
       0            0   -111389.64   -111389.64   -245.25151       274625  0.038816842 
     100    152.77091   -111802.27   -111376.49    80.173412    274595.28  0.038821043 
     200    174.99374   -111842.28   -111354.56   -2.8244847    274551.05  0.038827297 
     300    182.48223   -111839.68   -111331.09    130.28162    274521.16  0.038831525 
     400    176.96733   -111795.29   -111302.07    189.62699    274488.55  0.038836138 
     500    185.63725   -111787.88    -111270.5    143.28731    274407.55  0.038847602 
     600    195.88002   -111782.86   -111236.93    15.990505    274261.21   0.03886833 
     700    203.25636   -111768.71   -111202.22   -322.96096    274080.17  0.038894005 
     800    214.57869   -111762.42   -111164.38    273.22816    273899.32  0.038919686 
     900    218.08261   -111733.86   -111126.05   -33.524218    273721.71  0.038944939 
    1000    226.02686   -111717.25    -111087.3   -18.419746    273514.08  0.038974503 
    1100    221.79258   -111666.46   -111048.31    128.23221    273271.06  0.039009163 
    1200    242.28255   -111683.21   -111007.95   -170.60209    273018.98   0.03904518 
    1300    256.19636   -111681.25   -110967.21    171.55171    272756.67  0.039082731 
    1400    259.11568    -111649.5   -110927.33   -84.540145    272483.02   0.03912198 
    1500    265.33024   -111627.27   -110887.78    -377.4912    272174.73  0.039166293 
    1600    273.18268   -111610.38      -110849     3.238221    271820.01  0.039217404 
    1700     263.4076   -111544.95   -110810.82    332.89577    271479.08  0.039266655 
    1800    278.71719    -111550.2    -110773.4   -80.028051    271189.74   0.03930855 
    1900    282.66489   -111525.55   -110737.75   -85.706418    270962.02  0.039341585 
    2000    290.80905   -111513.64   -110703.14    334.86708    270830.59  0.039360676 
    2100    298.42315   -111504.47   -110672.74   -231.27649    270818.96  0.039362367 
    2200    309.24246   -111507.46   -110645.59    241.44665    270890.06  0.039352036 
    2300    299.75107    -111457.9   -110622.47   -10.033177    271032.16  0.039331404 
    2400    310.10808   -111466.26   -110601.97   -55.687898    271228.87  0.039302878 
    2500    315.86681   -111466.04    -110585.7   -96.125319    271459.35  0.039269509 
    2600     328.6693   -111486.97   -110570.95    359.76043    271667.75  0.039239385 
    2700    326.39523   -111472.83   -110563.15    36.309418     271918.4  0.039203215 
    2800     306.4211   -111417.03   -110563.02    108.23628    272216.24  0.039160322 
    2900    313.77533   -111442.43   -110567.92   -43.411562    272572.47  0.039109141 
    3000    313.11402   -111448.17   -110575.51    -97.12004     272959.1  0.039053746 
    3100    308.61818   -111448.72   -110588.58    124.06762    273345.69  0.038998513 
    3200    306.38782   -111458.59   -110604.67   -45.683567    273752.14   0.03894061 
    3300    299.66333   -111458.09   -110622.91     16.87053    274132.41  0.038886593 
    3400    311.23499   -111509.44   -110642.01    108.02935    274449.12  0.038841718 
    3500     293.7697   -111477.34   -110658.59    215.16612    274726.67  0.038802478 
    3600    289.39361   -111479.52   -110672.97     187.2384    275015.42  0.038761737 
    3700    288.72822   -111488.13   -110683.42   -109.68845    275324.25  0.038718258 
    3800    293.14561    -111506.9   -110689.89   -337.42857    275593.87  0.038680379 
    3900    286.17932   -111491.78   -110694.19    169.18711    275783.04  0.038653847 
    4000    293.72474    -111513.5   -110694.87    164.00644    275978.92  0.038626411 
    4100    290.72112   -111501.68   -110691.43    90.605144     276197.3  0.038595872 
    4200    281.54248   -111467.27    -110682.6    -165.0111    276418.07  0.038565045 
    4300    292.81697   -111485.88   -110669.78    279.03065    276564.44  0.038544634 
    4400    291.39458   -111467.12   -110654.99    -81.86273    276625.78  0.038536087 
    4500    301.67267   -111479.13   -110638.35   -8.1983949    276632.09  0.038535209 
    4600    302.00687   -111463.18   -110621.47    174.01296    276639.68  0.038534151 
    4700    295.15096   -111428.27   -110605.66   -65.241755     276668.4  0.038530151 
    4800    304.34299   -111440.59   -110592.36     233.6586    276689.93  0.038527153 
    4900    312.98359   -111455.24   -110582.93   -142.60643    276713.54  0.038523867 
    5000    310.52548   -111441.25    -110575.8    282.03816    276712.62  0.038523994 
    5100    301.49469   -111412.41   -110572.13      -135.33    276709.28   0.03852446 
    5200    313.11546   -111444.55   -110571.88   -53.977908    276670.13   0.03852991 
    5300    311.76536    -111443.3    -110574.4    161.71017    276619.13  0.038537015 
    5400    306.32218   -111433.81   -110580.08    114.34203    276573.27  0.038543405 
    5500    306.49388   -111443.16   -110588.94     48.99325    276553.77  0.038546122 
    5600    299.27644   -111433.87   -110599.77     -84.3862    276581.49  0.038542259 
    5700    310.03474   -111474.17   -110610.08    265.54829    276652.72  0.038532336 
    5800    296.49449   -111449.18   -110622.83   -15.469865    276738.48  0.038520395 
    5900    306.57049   -111490.21   -110635.78   -155.26266    276802.97  0.038511419 
    6000    302.62976   -111493.35   -110649.91    122.56536    276891.04   0.03849917 
    6100    293.21051   -111479.67   -110662.48   -358.46939    276987.78  0.038485724 
    6200    296.52855   -111501.03   -110674.59    -49.14425    277075.97  0.038473475 
    6300    285.20362   -111478.61   -110683.73   -47.794167    277168.79   0.03846059 
    6400    290.95094   -111498.71   -110687.81   -298.51388    277246.81  0.038449768 
    6500    286.29217   -111487.26   -110689.35     3.956093     277328.4  0.038438456 
    6600    288.96087   -111489.73   -110684.38   -304.92165    277402.43  0.038428198 
    6700    294.29327   -111498.01    -110677.8   -15.504342     277435.9  0.038423562 
    6800    297.21374   -111496.24   -110667.89    15.105461    277433.52  0.038423891 
    6900    302.63073   -111502.75    -110659.3   -215.65187    277389.61  0.038429973 
    7000    299.00229    -111482.8   -110649.46   -141.42254    277298.18  0.038442644 
    7100    296.95983   -111467.78   -110640.14    184.20163    277176.53  0.038459517 
    7200    301.65478   -111471.08   -110630.35    258.46441    277041.41  0.038478274 
    7300     296.5661   -111446.42   -110619.87   -47.426098    276939.97  0.038492369 
    7400    308.22114    -111467.7   -110608.67    116.84924    276823.19  0.038508606 
    7500    315.31165   -111477.52   -110598.73   -47.859409    276722.32  0.038522644 
    7600    301.65144   -111433.84   -110593.12   -103.10298    276634.08  0.038534931 
    7700    303.38199   -111436.17   -110590.63   -9.7101799    276530.03  0.038549432 
    7800    320.75787   -111485.75   -110591.78   -39.858067    276400.71  0.038567468 
    7900    317.13002   -111479.97   -110596.11    25.389926    276245.46  0.038589143 
    8000    309.77408   -111466.32   -110602.96    272.70635    276086.26  0.038611394 
    8100    303.57136   -111460.07      -110614    180.62092    275980.94  0.038626128 
    8200    294.74643    -111446.7   -110625.23   -28.756999    275945.41  0.038631102 
    8300    299.35998   -111471.31   -110636.98   -263.25887    275933.26  0.038632804 
    8400     288.0014   -111449.24   -110646.56    26.857916    275905.39  0.038636706 
    8500    292.93246   -111471.48   -110655.06   -234.68464    275873.33  0.038641195 
    8600    304.02248   -111508.38   -110661.05   -147.75719    275833.74  0.038646743 
    8700     297.8344   -111498.36   -110668.28    69.233121    275792.62  0.038652504 
    8800    295.13357   -111497.08   -110674.53    18.476058    275792.42  0.038652532 
    8900    296.88697   -111507.33   -110679.89    11.314693    275804.76  0.038650803 
    9000    296.78563   -111509.88   -110682.72   -115.81228    275861.45   0.03864286 
    9100    298.64993   -111517.65    -110685.3   -209.05496     275929.5   0.03863333 
    9200    295.42335   -111510.19   -110686.82    89.826159    276004.28  0.038622862 
    9300    287.86177   -111488.95   -110686.66    181.45214    276106.61  0.038608548 
    9400    296.25592   -111510.19   -110684.51    220.28105    276261.37   0.03858692 
    9500    297.29338   -111508.33   -110679.75   -353.89712    276472.53  0.038557448 
    9600    296.63614   -111502.07   -110675.33    138.88786    276680.97  0.038528401 
    9700    302.12726   -111511.38   -110669.34    271.99235    276874.98  0.038501404 
    9800    305.99754   -111516.09   -110663.26    163.04859    277028.32  0.038480092 
    9900    304.49134   -111504.64      -110656   -67.617909    277131.86  0.038465716 
   10000    291.45673   -111460.93   -110648.62   -211.85891    277210.61  0.038454788 
   10100    302.26183   -111483.49   -110641.07     12.69756    277276.93   0.03844559 
   10200    302.98787   -111477.07   -110632.62    527.88875     277354.7  0.038434811 
   10300      305.705   -111477.14   -110625.13   -109.36561    277468.42  0.038419058 
   10400    304.57482   -111468.54   -110619.67    215.96375     277562.5  0.038406036 
   10500    312.63681   -111487.86   -110616.52    -7.645766    277608.53  0.038399667 
   10600    300.01202   -111451.95    -110615.8    86.613553    277613.01  0.038399048 
   10700    305.40234   -111469.63   -110618.45    11.831266    277603.32  0.038400389 
   10800    300.08214   -111458.72   -110622.38    37.856857     277578.4  0.038403836 
   10900    308.59355    -111486.6   -110626.53    41.798028    277535.64  0.038409753 
   11000    302.12463   -111472.96   -110630.92   -211.60055    277485.49  0.038416694 
   11100     308.7477   -111498.12   -110637.62   -45.913458    277449.23  0.038421715 
   11200    305.96047   -111501.18   -110648.45    396.49571    277458.18  0.038420477 
   11300    306.91225    -111515.3   -110659.91    212.81288    277538.18  0.038409402 
   11400    294.56495   -111491.35   -110670.38   -37.327424    277620.47  0.038398016 
   11500    298.08341   -111508.79   -110678.01   -209.16528     277668.4  0.038391388 
   11600    295.73872   -111507.68   -110683.44   -36.523174    277703.66  0.038386513 
   11700    283.27514   -111475.81   -110686.31     20.74254    277751.44  0.038379911 
   11800     299.9213   -111520.31   -110684.41     -23.6962    277845.92   0.03836686 
   11900    285.69238    -111475.7   -110679.45   -432.35529    277919.43  0.038356712 
   12000    297.49602   -111499.09   -110669.95   -33.003371    277940.14  0.038353854 
   12100    294.28513      -111477   -110656.81   -141.23601       277889  0.038360912 
   12200    305.07492   -111493.32   -110643.06    111.83862    277778.05  0.038376234 
   12300    297.66095   -111460.14   -110630.54   -187.11135    277649.83  0.038393956 
   12400    298.41301   -111453.22   -110621.53     38.30905    277502.82  0.038414295 
   12500    302.36819   -111457.43   -110614.71   -195.95223    277352.63  0.038435098 
   12600    310.98629   -111478.08   -110611.34   -34.931693    277167.07   0.03846083 
   12700    302.10614   -111451.76   -110609.77    260.56467    276924.37  0.038494537 
   12800    303.77469   -111457.01   -110610.37     42.61867    276632.07  0.038535212 
   12900    312.62131   -111482.11   -110610.82    308.07565    276327.13  0.038577737 
   13000    307.43858   -111471.09   -110614.24    187.97898    276058.22  0.038615316 
   13100    307.68543   -111475.16   -110617.63    117.45174     275860.9  0.038642937 
   13200    299.28017   -111457.79   -110623.68    49.151203    275698.39  0.038665716 
   13300    300.63196   -111468.05   -110630.17   -323.57934    275570.17  0.038683706 
   13400    303.08705   -111483.25   -110638.53   -54.080612    275428.61  0.038703587 
   13500    297.35379   -111475.02   -110646.28   -167.68712    275258.57  0.038727496 
   13600    303.46321   -111498.18   -110652.42   -66.658762    275072.91  0.038753636 
   13700    298.40769   -111488.39   -110656.71   -81.159815    274904.94  0.038777315 
   13800    298.55978   -111493.86   -110661.75    290.88616    274765.37  0.038797012 
   13900    288.95846   -111470.21   -110664.86   -203.49357    274712.25  0.038804513 
   14000    291.93523   -111481.19   -110667.55   -17.067687    274694.95  0.038806958 
   14100    295.81272   -111494.22   -110669.78   -187.69163    274691.89   0.03880739 
   14200    298.66674   -111505.16   -110672.76    106.72694    274684.21  0.038808475 
   14300    296.23093   -111501.67   -110676.06   -349.75963    274676.91  0.038809506 
   14400    299.99863   -111517.05   -110680.94     148.1389    274681.65  0.038808837 
   14500    292.40239   -111498.35   -110683.41    191.07495    274723.14  0.038802975 
   14600    299.52126    -111520.6   -110685.81    149.32581    274772.48  0.038796008 
   14700    292.50447    -111500.8   -110685.57    21.321518    274868.58  0.038782444 
   14800    294.94688   -111504.66   -110682.63   -97.417617    274984.46  0.038766101 
   14900    293.46638   -111493.97   -110676.06   -341.13148    275122.59  0.038746638 
   15000    300.62461   -111506.51   -110668.65    56.136285    275261.03   0.03872715 
   15100    295.58631    -111484.3   -110660.49     232.5346    275368.24  0.038712073 
   15200    299.04351   -111485.19   -110651.74   -79.761614    275460.98   0.03869904 
   15300    299.00321   -111476.24    -110642.9   -64.628468    275568.86  0.038683889 
   15400    298.35437   -111466.85   -110635.32   -190.34955    275693.63  0.038666383 
   15500    303.40994   -111473.45   -110627.83    78.935362    275800.59  0.038651388 
   15600    306.80025   -111475.23   -110620.16   -22.955402    275877.66  0.038640589 
   15700    297.65702   -111443.98   -110614.39   -53.488226    275915.55  0.038635283 
   15800    301.44335   -111447.34    -110607.2    7.9397201    275917.67  0.038634986 
   15900    314.06213   -111475.65   -110600.34    381.72992    275945.04  0.038631154 
   16000    310.59935   -111459.76    -110594.1    81.994035    276026.44  0.038619762 
   16100    306.50451   -111442.91   -110588.67   -199.51841    276097.97  0.038609756 
   16200    303.11655   -111428.71    -110583.9   -94.809223     276170.3  0.038599644 
   16300     306.7386   -111434.66   -110579.77    79.677406    276210.67  0.038594003 
   16400    296.28226   -111400.02   -110574.27   -164.62242    276226.07  0.038591851 
   16500    309.32536   -111430.75   -110568.64    391.98336    276213.91   0.03859355 
   16600    305.84337   -111417.82   -110565.42     -95.9171    276216.29  0.038593218 
   16700     299.3757   -111401.62   -110567.24    143.76435    276196.92  0.038595925 
   16800    307.30732   -111428.69    -110572.2    49.648681     276149.2  0.038602593 
   16900    305.97979   -111433.03   -110580.25    62.594299    276031.36  0.038619074 
   17000    302.08216   -111435.17   -110593.25    -2.370699    275848.47  0.038644678 
   17100    304.44255   -111455.97   -110607.47    176.69941    275604.34   0.03867891 
   17200    299.50449   -111456.08   -110621.35   -102.85193     275331.2   0.03871728 
   17300     300.2512   -111472.16   -110635.35    255.51122    275035.24  0.038758943 
   17400    302.39827   -111488.02   -110645.22   -68.009262    274773.97  0.038795798 
   17500    294.60983   -111472.54   -110651.45    258.32938    274577.55   0.03882355 
   17600    304.07631   -111504.72   -110657.24    372.66623    274409.44  0.038847335 
   17700    305.77146   -111514.82   -110662.62   -105.17742    274258.44  0.038868724 
   17800    297.01215    -111495.7   -110667.91    158.55064    274096.46  0.038891692 
   17900    296.77654   -111499.07   -110671.94   -275.76466    273938.56  0.038914111 
   18000    291.59888   -111485.56   -110672.86    28.589697    273759.77  0.038939524 
   18100    293.07487   -111491.91   -110675.09    41.740148    273586.31  0.038964213 
   18200    302.20086    -111518.8   -110676.55    121.06909    273435.09  0.038985762 
   18300    302.28627   -111521.68   -110679.19    -256.0138    273323.56   0.03900167 
   18400    293.31978   -111500.52   -110683.02    57.794256    273216.64  0.039016933 
   18500    296.64792   -111514.15   -110687.38   -173.59424     273102.3  0.039033269 
   18600    294.95101   -111512.03   -110689.99    120.10673    272957.52  0.039053971 
   18700    292.23385   -111505.93   -110691.46   -107.13676     272835.8  0.039071395 
   18800    298.51416    -111522.9   -110690.93   -156.97674     272725.7  0.039087168 
   18900    292.52079   -111503.32   -110688.05    86.899887    272613.52  0.039103253 
   19000    307.02849   -111537.52   -110681.81    289.83641    272502.36  0.039119203 
   19100    299.90612   -111509.08   -110673.22     329.2497    272391.29  0.039135155 
   19200    296.45707    -111488.2   -110661.96    134.98806    272305.47  0.039147489 
   19300    293.94783    -111468.2   -110648.95    261.26386    272216.21  0.039160326 
   19400    304.19153   -111484.05   -110636.25    -97.92739    272122.42  0.039173823 
   19500    309.91507   -111491.32   -110627.57    -218.4676    272017.22  0.039188973 
   19600    315.38567   -111500.35   -110621.35     259.4912    271931.33  0.039201351 
   19700    305.06304   -111468.07   -110617.84    348.14275     271841.2  0.039214349 
   19800    303.90482   -111463.25   -110616.25   -123.77368    271780.39  0.039223122 
   19900    307.52584   -111474.82   -110617.73     196.2075    271764.04  0.039225481 
   20000    302.37036    -111464.5   -110621.77   -210.18082    271800.31  0.039220248 
   20100    303.95087   -111473.53   -110626.41    98.905494    271884.77  0.039208063 
   20200    311.73082   -111501.59   -110632.78   -485.46228    271964.54  0.039196563 
   20300    303.40629   -111491.87   -110646.25    -211.8375    272009.44  0.039190093 
   20400    289.90269   -111470.09   -110662.11    26.599153    272020.94  0.039188437 
   20500    290.06502   -111485.83    -110677.4   -34.060655    272028.93  0.039187286 
   20600    286.75965   -111487.83   -110688.61   -100.27845    272057.39  0.039183186 
   20700     288.4764   -111497.43   -110693.43   -107.63667     272089.7  0.039178533 
   20800    285.14291   -111489.16   -110694.45   -174.09062     272109.2  0.039175725 
   20900      291.465   -111505.04   -110692.71    130.77645    272071.56  0.039181145 
   21000    297.01792   -111517.43   -110689.63    140.67869    271991.69   0.03919265 
   21100     302.7829   -111529.49   -110685.61   -210.78408    271896.87  0.039206319 
   21200    301.01383   -111519.14    -110680.2    57.431456    271774.29  0.039224003 
   21300    301.93777   -111517.38   -110675.86   -398.51623    271665.57    0.0392397 
   21400    288.06895   -111474.55   -110671.69   -290.75575    271541.01  0.039257699 
   21500    288.17657   -111470.23   -110667.07    6.2314755    271393.74  0.039279003 
   21600    299.30318   -111496.22   -110662.04    85.980149    271206.95  0.039306056 
   21700    296.24374   -111480.59   -110654.94    -166.8436    271021.06  0.039333014 
   21800    307.66803   -111506.13   -110648.64  -0.54610502    270786.13   0.03936714 
   21900    301.27619   -111482.84   -110643.17   -157.49528    270504.49  0.039408127 
   22000    298.66213   -111470.82   -110638.44    192.56012    270171.88  0.039456642 
   22100    301.33077   -111475.81   -110635.98    128.08704    269802.36  0.039510682 
   22200    302.26822   -111477.06   -110634.62    39.656956    269405.46  0.039568892 
   22300    297.37309   -111465.38   -110636.58    62.095267    269008.79  0.039627239 
   22400    299.61791   -111472.85   -110637.79   -10.672051    268620.56   0.03968451 
   22500    303.36191   -111483.85   -110638.36    9.8941896    268215.26  0.039744478 
   22600    297.70633   -111467.76   -110638.04  -0.67654678    267832.33  0.039801301 
   22700    305.52924   -111489.95   -110638.43    -46.32201    267464.01  0.039856112 
   22800    297.03746   -111467.51   -110639.65    40.358036    267086.46  0.039912451 
   22900    305.85121   -111493.13   -110640.71    79.074236     266744.2  0.039963664 
   23000    303.10661   -111489.07    -110644.3    105.42063    266453.43  0.040007274 
   23100    301.18396   -111488.23   -110648.81   -49.985238    266173.17  0.040049399 
   23200    312.17848    -111524.4   -110654.34   -35.436408    265878.04  0.040093855 
   23300    297.69218    -111487.7   -110658.02    -69.10347    265523.28  0.040147423 
   23400    305.33418    -111512.7   -110661.71   -26.926386    265164.55  0.040201736 
   23500    295.27972   -111488.57    -110665.6    174.91875    264875.29  0.040245639 
   23600    286.52093   -111467.14   -110668.59     306.3753    264632.44  0.040282573 
   23700    300.80431   -111507.77   -110669.41   -35.196279       264368  0.040322866 
   23800    305.94285   -111523.71   -110671.03    54.809493    264070.02  0.040368366 
   23900    291.20101   -111482.55   -110670.96   -99.838651    263739.77  0.040418916 
   24000    292.94736   -111485.48   -110669.02    105.16723    263436.92  0.040465381 
   24100    287.61088   -111466.05   -110664.47    -233.6508    263182.27  0.040504534 
   24200    289.78463    -111462.4   -110654.75   -83.781413    262965.88  0.040537865 
   24300    293.78224   -111454.55   -110635.76   -158.48222     262760.4  0.040569565 
   24400    317.31317   -111496.93   -110612.56   -16.094918    262533.84  0.040604577 
   24500    317.84726   -111484.79   -110598.93   -88.041147    262316.83  0.040638167 
   24600    323.25511      -111493   -110592.07   -154.48235    262080.14  0.040674869 
   24700     310.3485    -111456.7   -110591.74   -22.988205    261792.07  0.040719627 
   24800    320.75162   -111490.45    -110596.5    85.181966    261483.59  0.040767665 
   24900    300.10224   -111440.33   -110603.92   -37.509481    261144.19  0.040820649 
   25000    307.52823   -111470.68   -110613.58    137.59124    260808.75  0.040873151 
   25100    297.14052   -111453.67   -110625.53   -44.380917    260500.57  0.040921505 
   25200    302.70538   -111481.54   -110637.88    64.322076    260187.81  0.040970695 
   25300    297.27105    -111476.6   -110648.08   -82.041726     259858.3  0.041022648 
   25400    302.92479   -111499.35   -110655.08   -205.90829    259502.11  0.041078955 
   25500    296.05414   -111486.12      -110661   -90.147363    259137.21    0.0411368 
   25600    304.66151   -111512.48   -110663.37   -38.524078    258814.53  0.041188087 
   25700    293.56924   -111482.52   -110664.33   -189.21826     258532.2  0.041233067 
   25800    290.99393   -111474.86   -110663.85    4.2804633    258260.48  0.041276448 
   25900      293.409   -111479.91   -110662.16   -241.88166     257963.8  0.041323919 
   26000    304.28242   -111507.55    -110659.5    255.41542    257625.13  0.041378243 
   26100    301.84934   -111497.63   -110656.36   -146.39185    257321.83  0.041427015 
   26200    290.59272   -111462.59    -110652.7   -146.05207    257017.29  0.041476103 
   26300    303.79717   -111494.26   -110647.56   -46.937005     256687.2  0.041529439 
   26400    301.68957   -111483.33   -110642.51   -321.81038    256307.23  0.041591006 
   26500    303.02593   -111479.37   -110634.82   -268.65834    255883.64  0.041659855 
   26600    302.09329   -111465.79   -110623.84    13.006103    255451.05  0.041730404 
   26700    300.31298   -111443.66   -110606.67   -70.030527    254997.79  0.041804579 
   26800    303.45942   -111436.49   -110590.73    120.41672    254544.75  0.041878983 
   26900    313.14428   -111448.68   -110575.93   -67.375234     254124.4  0.041948256 
   27000    314.51196   -111443.91   -110567.35   -496.38687    253704.73  0.042017646 
   27100    316.39993   -111446.53    -110564.7    198.37295    253269.64  0.042089827 
   27200    313.74062   -111441.22   -110566.81    13.136045    252846.43  0.042160276 
   27300    316.72502    -111457.1   -110574.37    323.84574    252426.09  0.042230482 
   27400    310.71265    -111453.9   -110587.93   -106.70902    252030.76  0.042296723 
   27500    316.80914    -111486.1   -110603.13   -36.830733    251662.67  0.042358588 
   27600    306.08493   -111468.74   -110615.67    340.63513    251312.97   0.04241753 
   27700    300.07166   -111460.62    -110624.3   -190.44472    250958.61  0.042477424 
   27800    305.25562   -111481.78   -110631.02   -236.53481    250599.65  0.042538269 
   27900    313.42587   -111510.93   -110637.39    144.02253    250241.79  0.042599101 
   28000    302.45255      -111486   -110643.05   -122.12619    249865.56  0.042663244 
   28100    307.08349   -111502.75   -110646.89    218.56034     249447.7  0.042734711 
   28200    300.49575    -111485.8    -110648.3   -6.0069612    249047.32  0.042803413 
   28300    291.29737   -111462.55   -110650.68    382.36539    248681.14  0.042866441 
   28400    308.16155   -111510.61   -110651.74    288.65754    248360.69  0.042921749 
   28500    311.54805   -111522.35   -110654.05    10.199142    248064.09  0.042973069 
   28600    297.88878   -111487.69   -110657.46    153.93757    247772.56  0.043023631 
   28700    303.69179   -111510.45   -110664.05   -288.39159    247475.63  0.043075253 
   28800    304.89325   -111522.07   -110672.31    191.05974    247161.89  0.043129931 
   28900    290.74177   -111493.47   -110683.15   -52.065505    246882.85   0.04317868 
   29000    291.65756   -111504.66   -110691.79    254.25103    246613.48  0.043225842 
   29100    291.51025   -111511.08   -110698.62   -199.78625    246375.82  0.043267538 
   29200    290.00575   -111511.37   -110703.11    -302.3476    246170.75  0.043303582 
   29300    293.93845   -111524.27   -110705.04   -226.37216     245953.8  0.043341779 
   29400    287.81352   -111505.36   -110703.21    518.81179    245679.03  0.043390254 
   29500    282.47201   -111482.12   -110694.86    102.16582    245433.24  0.043433706 
   29600    289.56808   -111485.98   -110678.94    88.994267    245251.32  0.043465925 
   29700    299.11408    -111491.1   -110657.45    300.63039    245077.88  0.043496684 
   29800    305.89934   -111493.08   -110640.52    13.829894    244877.68  0.043532246 
   29900    307.05779    -111486.2   -110630.42    43.561728    244595.11  0.043582537 
   30000     306.4072   -111477.85   -110623.87    53.993602    244278.17  0.043639083 
   30100    309.19187   -111481.31   -110619.57   -249.11194    243936.77  0.043700158 
   30200    305.40167   -111469.48    -110618.3   -20.261052    243563.15  0.043767192 
   30300     307.0891   -111476.78   -110620.91    337.25548    243166.96  0.043838502 
   30400    307.29975   -111480.65   -110624.18   -119.21297     242824.7  0.043900293 
   30500    291.55543   -111443.66   -110631.08   -260.98417    242512.39  0.043956827 
   30600    298.15491   -111469.95   -110638.98   -63.991584    242172.83  0.044018462 
   30700    307.40463   -111504.87   -110648.11   -318.52365    241811.02  0.044084323 
   30800    301.62203   -111498.24   -110657.61   -111.83102    241403.81  0.044158688 
   30900    299.18085   -111502.11   -110668.27   -110.67223    240989.18  0.044234664 
   31000    285.38339   -111471.42   -110676.04    31.378425    240565.72  0.044312528 
   31100    302.15198   -111523.82    -110681.7   -544.57122    240160.27  0.044387338 
   31200    302.46926   -111529.27   -110686.27    322.54829    239740.07  0.044465139 
   31300    287.54984   -111492.13   -110690.71    16.761041    239315.42  0.044544039 
   31400    298.54232   -111525.23   -110693.18    51.322783     238880.6  0.044625119 
   31500    296.79748   -111521.67   -110694.48    123.75159    238480.16  0.044700052 
   31600    294.28744   -111515.96   -110695.76   -72.341996    238121.23   0.04476743 
   31700    288.49727   -111499.74   -110695.68    -305.4042    237766.76   0.04483417 
   31800    301.49718   -111531.72   -110691.43   -248.79506    237413.44  0.044900893 
   31900    302.23651   -111524.18   -110681.83    201.08427    237063.66  0.044967142 
   32000    289.75854    -111473.7   -110666.13   -117.22277    236714.83  0.045033407 
   32100    302.17632   -111488.96   -110646.78   -167.64619    236387.24  0.045095815 
   32200     317.6318   -111518.12   -110632.86    356.30556    236074.88  0.045155484 
   32300    301.02038    -111463.9   -110624.94    337.44511    235792.06  0.045209645 
   32400    309.01098   -111481.77   -110620.54    -86.93954    235498.68  0.045265966 
   32500    304.64628   -111468.14   -110619.07    236.27129     235201.7  0.045323123 
   32600     315.8171   -111500.83   -110620.63    308.09361    234971.79  0.045367469 
   32700    308.41814   -111485.75   -110626.17    62.010718    234804.45  0.045399802 
   32800    305.64776   -111485.39   -110633.53     35.11591    234672.28   0.04542537 
   32900    296.02696   -111467.91   -110642.87    8.5231452    234547.89  0.045449461 
   33000    298.41271   -111485.64   -110653.94    200.82547    234412.77   0.04547566 
   33100    294.92736   -111486.32   -110664.34    514.29761    234289.32  0.045499622 
   33200    299.16925      -111508    -110674.2   -157.56586    234211.85  0.045514672 
   33300    292.34557    -111497.2   -110682.42    165.35106    234163.84  0.045524004 
   33400     298.8586   -111520.55   -110687.62   -19.089268    234131.07  0.045530375 
   33500    291.58024   -111503.34   -110690.69     192.0548    234096.08  0.045537179 
   33600    303.73477   -111537.38   -110690.86    93.917855    234102.12  0.045536005 
   33700    279.94321   -111467.82    -110687.6    184.64134    234103.09  0.045535816 
   33800    291.71524    -111495.4   -110682.37    -340.2271    234069.59  0.045542334 
   33900    303.18086   -111519.86   -110674.88   -328.47222       233974   0.04556094 
   34000     296.8743    -111493.1   -110665.69    70.501134    233856.51  0.045583829 
   34100    307.01509   -111509.92   -110654.25    116.98607    233757.23   0.04560319 
   34200    305.31896   -111490.87   -110639.93    117.30868    233640.23  0.045626027 
   34300    295.37935   -111444.88   -110621.64    76.929186    233495.18  0.045654369 
   34400    300.67479   -111440.98   -110602.99   -242.79691    233327.26  0.045687227 
   34500    313.90069   -111464.82   -110589.97    521.35183    233140.47   0.04572383 
   34600    310.88502   -111452.32   -110585.86     245.9212    232973.02  0.045756695 
   34700    304.09556   -111433.98   -110586.45    50.760614    232816.05  0.045787545 
   34800    307.95699    -111446.6   -110588.31    587.04012    232644.77  0.045821254 
   34900    315.27383   -111470.97   -110592.29   -153.87219    232461.34  0.045857412 
   35000    299.44734   -111433.22   -110598.65   -112.26194    232291.21  0.045890998 
   35100      304.109   -111453.35   -110605.78    105.32236    232127.12  0.045923438 
   35200    306.40372      -111468   -110614.04   -578.71043    231972.16  0.045954115 
   35300    304.16442   -111470.75   -110623.02   -117.66355       231819  0.045984477 
   35400    298.61113   -111463.93   -110631.69    46.450041    231647.28  0.046018565 
   35500    303.33567   -111483.92    -110638.5   -123.02758       231471  0.046053612 
   35600    300.75674   -111483.91   -110645.69   -41.656382    231247.74  0.046098075 
   35700    306.82471   -111508.74    -110653.6    24.191397    230992.71  0.046148968 
   35800    301.59885   -111503.18    -110662.6    -259.8808    230711.09  0.046205301 
   35900    297.48342   -111500.36   -110671.25    15.585359    230444.62   0.04625873 
   36000    297.02398   -111506.57   -110678.74   -242.08702    230231.86  0.046301478 
   36100    304.04604   -111533.06   -110685.66   -77.867255    230056.57  0.046336757 
   36200    297.45348   -111520.52    -110691.5    91.112437    229869.19  0.046374529 
   36300    285.56243   -111491.25   -110695.37    139.31627    229668.06  0.046415142 
   36400    286.65526   -111496.12    -110697.2    129.91731    229497.26  0.046449684 
   36500    291.18078    -111507.8   -110696.26    709.21642    229341.75   0.04648118 
   36600    293.24411   -111510.93   -110693.64    -16.94599    229207.58   0.04650839 
   36700    297.22366   -111516.26   -110687.88    254.15137    229049.31  0.046540527 
   36800    292.79199   -111492.25   -110676.22    232.51823    228893.57  0.046572193 
   36900    288.04799   -111459.35   -110656.54   -132.95915    228799.96  0.046591247 
   37000    303.48159   -111474.62    -110628.8    117.51275    228767.87  0.046597781 
   37100    309.12376   -111471.23   -110609.68   -211.97344    228784.53  0.046594389 
   37200     309.6977   -111464.21   -110601.06   -12.125158    228786.56  0.046593976 
   37300      300.918   -111438.12   -110599.45   -254.86727    228746.88  0.046602057 
   37400    311.91941   -111470.41   -110601.07   -170.98394    228695.58  0.046612512 
   37500    313.29013   -111479.76    -110606.6   -335.23902    228646.38  0.046622543 
   37600    310.49231   -111481.73   -110616.37    167.66951    228580.88  0.046635902 
   37700    305.66165   -111479.68   -110627.78    100.31333    228496.03   0.04665322 
   37800    294.19264   -111460.04   -110640.11   -101.70036    228377.68  0.046677396 
   37900    300.49304   -111488.99    -110651.5    65.256911    228204.62  0.046712794 
   38000    304.03819   -111508.99   -110661.62   -370.04381    228019.84  0.046750648 
   38100    295.83566   -111493.14   -110668.63    134.35168    227831.86  0.046789221 
   38200    295.25835   -111498.06   -110675.15    503.48284    227676.98   0.04682105 
   38300    296.83348   -111505.21   -110677.92    91.655894    227537.97  0.046849654 
   38400    299.85373   -111515.73   -110680.02   -30.819459    227418.72  0.046874221 
   38500    290.05278   -111488.75   -110680.36    86.242876    227285.63  0.046901669 
   38600    284.14166   -111469.64   -110677.72    83.452749    227118.81  0.046936118 
   38700     288.5013   -111475.22   -110671.15    -129.0462    226904.36  0.046980477 
   38800    306.15488    -111515.1   -110661.83    417.26955    226668.62   0.04702934 
   38900    302.00607   -111489.93   -110648.22   -12.717106     226445.1  0.047075761 
   39000    312.33298   -111503.53   -110633.04    110.00695    226251.89  0.047115962 
   39100    299.44281      -111454   -110619.43    232.00473    226102.87  0.047147016 
   39200    297.37583   -111438.61   -110609.81   -389.91111    225982.09  0.047172214 
   39300    316.19442   -111485.59   -110604.34   -122.23525    225852.89  0.047199198 
   39400    317.77544   -111489.41   -110603.75    288.29726    225738.94  0.047223024 
   39500    315.55153   -111485.41   -110605.95    -46.59124    225638.13  0.047244121 
   39600      297.012   -111438.17   -110610.38    367.46898    225539.61   0.04726476 
   39700    313.04416   -111488.42   -110615.95    215.87775    225464.45  0.047280515 
   39800    302.17866   -111464.09    -110621.9   -210.02511    225422.74  0.047289264 
   39900    306.64886   -111483.19   -110628.54    98.643644    225383.48  0.047297502 
   40000    314.70774   -111512.99   -110635.88    32.856507    225315.24  0.047311826 
   40100    285.43915   -111439.13   -110643.59   -116.41329    225192.32  0.047337651 
   40200    304.69703   -111497.87   -110648.66   -404.56794    225048.38  0.047367928 
   40300    298.64896   -111487.35   -110654.99   -57.105487    224882.65  0.047402835 
   40400    304.58262   -111508.49    -110659.6     -213.374    224699.23  0.047441531 
   40500    295.89305   -111488.42   -110663.74    396.12037    224518.42  0.047479735 
   40600    297.65703   -111495.68   -110666.09     109.9031    224364.85  0.047512235 
   40700    300.58739   -111505.35   -110667.59    376.51528    224232.77   0.04754022 
   40800    302.20596   -111511.24   -110668.98    113.11072    224099.31  0.047568532 
   40900    313.31961   -111542.27   -110669.03    130.95316    223988.47  0.047592073 
   41000    291.61524   -111482.33   -110669.58    420.30226    223890.55  0.047612886 
   41100    290.81217   -111479.49   -110668.98   -360.91296     223807.6  0.047630534 
   41200    298.27703   -111499.25   -110667.93   -435.26872    223682.43  0.047657187 
   41300    304.11669   -111511.94   -110664.35   -115.79064    223523.97  0.047690973 
   41400    303.77529   -111504.23   -110657.59   -309.23275    223361.23  0.047725718 
   41500    306.58886   -111502.76   -110648.28    398.25319    223217.09  0.047756537 
   41600    295.90759   -111460.42   -110635.71   -451.94175    223094.14  0.047782857 
   41700    312.25884   -111493.63   -110623.35    30.700084     222952.7  0.047813171 
   41800    309.50691   -111475.86   -110613.25    246.15721    222826.37  0.047840278 
   41900    309.38471   -111468.17   -110605.89     376.9484    222720.44  0.047863031 
   42000    304.84482   -111450.65   -110601.03   -265.82839     222626.4  0.047883249 
   42100     299.2751   -111433.42   -110599.33   -223.03149     222525.1  0.047905047 
   42200    308.10471   -111459.56   -110600.86    220.71853    222455.07  0.047920128 
   42300    308.48441   -111464.88   -110605.12   -81.712795    222426.68  0.047926245 
   42400    302.29386    -111455.5   -110612.99    251.53611    222390.25  0.047934096 
   42500    309.83187   -111486.37   -110622.85    294.27741    222318.26  0.047949617 
   42600    315.61169   -111515.75   -110636.12    88.944208    222256.51  0.047962939 
   42700    303.76294   -111496.24   -110649.64    64.346251     222221.7  0.047970451 
   42800    293.91419   -111479.99   -110660.83   -73.546165    222230.54  0.047968544 
   42900    290.67297   -111479.28   -110669.16   -222.91448    222223.09  0.047970152 
   43000    300.42285   -111511.54   -110674.24   -120.98173     222178.5  0.047979779 
   43100    292.43507   -111492.77   -110677.74    95.199021    222092.72  0.047998311 
   43200    292.80227   -111494.97   -110678.91    43.069625    221992.75  0.048019926 
   43300     292.1191   -111493.52   -110679.36   -119.90182    221906.77  0.048038531 
   43400    298.78418   -111511.38   -110678.66   -286.51072    221834.94  0.048054086 
   43500    294.19708   -111497.48   -110677.53    51.183462    221742.26  0.048074171 
   43600    289.60683   -111481.77   -110674.62   -159.68485    221618.25  0.048101073 
   43700    297.79833    -111501.2   -110671.22    39.751154    221470.96  0.048133062 
   43800     302.0944   -111508.79   -110666.84    145.58315    221315.77  0.048166814 
   43900    309.97021   -111527.21   -110663.31    -258.4886    221180.84  0.048196197 
   44000    304.48063   -111508.82   -110660.22    -399.0563    221074.59  0.048219361 
   44100    303.71936   -111505.29   -110658.81   -685.29632    220966.55  0.048242937 
   44200      304.045   -111506.71   -110659.32   -26.087956    220822.55  0.048274397 
   44300    302.26682   -111504.42   -110661.99    215.45935    220672.74  0.048307168 
   44400    293.13797   -111480.69    -110663.7    121.25839    220528.27  0.048338816 
   44500    292.67412   -111483.18   -110667.48    184.14621    220414.68  0.048363726 
   44600    299.41806   -111504.54   -110670.05   -327.22012    220329.16  0.048382498 
   44700    291.32127   -111484.53    -110672.6     714.8315    220284.95   0.04839221 
   44800    295.64267   -111496.86   -110672.89   -256.14581    220279.23  0.048393466 
   44900    290.45873   -111480.79   -110671.27    178.21779     220279.3  0.048393451 
   45000    291.30314   -111478.45   -110666.58   -255.44871    220240.41  0.048401996 
   45100    297.30946   -111488.02    -110659.4   -153.94739    220130.11  0.048426248 
   45200    296.06234   -111477.57   -110652.43   -305.46344    219939.51  0.048468215 
   45300      301.335   -111483.95   -110644.12    78.757475    219790.35  0.048501107 
   45400    312.87645   -111507.77   -110635.77     327.8756    219697.03  0.048521708 
   45500    300.93415   -111467.28   -110628.56    112.02694    219606.43  0.048541727 
   45600     313.8459   -111496.39   -110621.68    255.32083    219505.49  0.048564049 
   45700    304.97586   -111469.29    -110619.3   -596.94699    219406.05   0.04858606 
   45800     312.2046   -111488.46   -110618.32    33.305265    219272.88  0.048615567 
   45900    310.10761   -111485.12   -110620.83    5.0519368    219084.45  0.048657381 
   46000    311.37763   -111495.38   -110627.55    206.68569    218889.71  0.048700669 
   46100    308.41664   -111497.31   -110637.73     107.1714    218741.47  0.048733673 
   46200    309.98093   -111516.09   -110652.16    70.697801    218635.17  0.048757368 
   46300     302.2433   -111511.39   -110669.02   -160.74505    218537.32  0.048779199 
   46400    288.57318   -111485.58   -110681.31    107.61998     218410.9  0.048807433 
   46500    294.82514   -111511.75   -110690.06   -191.85503    218276.46  0.048837493 
   46600    295.85233   -111518.33   -110693.77    -217.5554    218151.88  0.048865385 
   46700    297.19329   -111523.07   -110694.78    12.220346    218029.36  0.048892843 
   46800     293.8521   -111512.36   -110693.38    140.66137    217891.94  0.048923679 
   46900    293.38827   -111507.51   -110689.82    255.71114       217727  0.048960741 
   47000    293.63685   -111504.15   -110685.77     11.06005     217578.9  0.048994069 
   47100    297.15854   -111507.63   -110679.43    41.626502    217439.66  0.049025442 
   47200     291.5513   -111485.17    -110672.6   -351.64012    217299.19  0.049057133 
   47300    297.16269   -111494.29   -110666.08   -422.50502    217131.66  0.049094983 
   47400    297.18906   -111487.55   -110659.27    27.686734    216971.02  0.049131334 
   47500    299.30443   -111487.18   -110653.01     446.6103    216853.56  0.049157944 
   47600     301.3899   -111487.04   -110647.04    86.572764    216769.12  0.049177094 
   47700     300.8615   -111481.23   -110642.71   -105.40628    216692.44  0.049194495 
   47800      307.795   -111498.17   -110640.33     416.4074    216616.92  0.049211648 
   47900    297.19188   -111467.13   -110638.84   -494.34811    216553.87  0.049225976 
   48000    301.36107    -111478.2   -110638.29    335.34906    216474.16    0.0492441 
   48100    293.98087   -111456.94    -110637.6    -83.25164    216394.53  0.049262222 
   48200    303.35437   -111481.23   -110635.76     251.9224     216314.6  0.049280426 
   48300    304.23599   -111480.57   -110632.65    371.47997    216231.45  0.049299375 
   48400    303.02912   -111473.79   -110629.24   -272.96857    216139.48  0.049320353 
   48500    303.07918   -111470.23   -110625.53   -264.94442    216021.98   0.04934718 
   48600    314.69536   -111501.48   -110624.41   -268.89922    215882.08  0.049379159 
   48700     297.5845    -111453.8   -110624.42    541.80679    215735.53  0.049412701 
   48800    305.28869    -111477.5   -110626.64    229.59582    215609.29  0.049441633 
   48900    297.95731   -111461.98   -110631.56    -205.2094    215493.07  0.049468297 
   49000    304.90343   -111486.94   -110637.16    -199.3228    215352.44  0.049500601 
   49100    292.96186   -111463.06   -110646.55    85.068109    215173.86  0.049541685 
   49200    307.79111   -111514.81   -110656.98   -394.92656    214962.94  0.049590294 
   49300    297.23273   -111495.33   -110666.93   -34.873003    214763.22  0.049636411 
   49400    293.02023   -111493.01   -110676.34    97.965024    214598.98    0.0496744 
   49500    287.49623   -111486.49   -110685.22   -305.80249    214430.46  0.049713439 
   49600    297.47253   -111520.43   -110691.36    141.65634    214247.79  0.049755823 
   49700    299.14037   -111528.57   -110694.85   -151.85002    214076.42  0.049795654 
   49800    285.32359   -111490.74   -110695.53    64.336006     213891.7  0.049838659 
   49900     293.3487   -111510.79   -110693.21   -566.95492    213724.54  0.049877639 
   50000    299.43994   -111521.65   -110687.09   -220.40166    213544.56  0.049919677 
   50100    294.84198   -111500.16   -110678.42   -268.93121    213369.77  0.049960571 
   50200    290.45235   -111476.24   -110666.73   -206.62723    213198.57   0.05000069 
   50300    302.94128   -111496.54   -110652.22   -97.232708    213023.25   0.05004184 
   50400    297.12066   -111467.02   -110638.93    318.07831    212850.07  0.050082555 
   50500    320.13161   -111519.86   -110627.64    122.65158    212699.95  0.050117902 
   50600    309.93528   -111486.66   -110622.85    36.618228    212543.77   0.05015473 
   50700    312.37996   -111492.34   -110621.72    273.71177    212352.16  0.050199986 
   50800    302.65761   -111467.85   -110624.32    225.52501    212154.39  0.050246782 
   50900    308.82755   -111490.15   -110629.43    481.99289    211967.79  0.050291016 
   51000    302.31617   -111477.87   -110635.29   -458.13037    211802.58  0.050330243 
   51100    309.79985   -111505.75   -110642.32    14.248345    211623.93  0.050372732 
   51200    306.71685   -111503.75   -110648.92   -60.974711    211455.47  0.050412861 
   51300    295.98341   -111481.06   -110656.14   -279.81452    211288.68  0.050452658 
   51400    289.85028   -111469.77   -110661.94    26.074782    211106.25  0.050496257 
   51500    305.77716   -111519.95   -110667.73   -295.94505    210908.87  0.050543513 
   51600    302.04848    -111513.5   -110671.68   -70.204401    210689.72  0.050596088 
   51700    303.75639   -111521.21   -110674.62    328.20411    210479.69  0.050646575 
   51800     292.4672   -111491.74   -110676.62   -58.678413    210296.12  0.050690784 
   51900    295.73938   -111501.57   -110677.33    588.67367    210155.67  0.050724662 
   52000    298.44475    -111512.2   -110680.41    322.15202    210069.47  0.050745476 
   52100    292.50224    -111497.3   -110682.08    149.27984    210003.46  0.050761426 
   52200    290.72417   -111495.07   -110684.81    286.67795    209947.79  0.050774888 
   52300    286.90843   -111488.98   -110689.35    560.29674     209868.2  0.050794142 
   52400    302.97375   -111539.01    -110694.6   -392.37989    209763.55  0.050819484 
   52500    290.24299    -111512.7   -110703.78   -310.70374    209619.11  0.050854501 
   52600    296.07094   -111541.14   -110715.97   -236.63983    209479.38  0.050888423 
   52700    282.57155    -111516.8   -110729.25   -90.976285    209338.99   0.05092255 
   52800    287.76319    -111539.8   -110737.79   -628.83974    209196.03   0.05095735 
   52900    289.77478   -111552.33   -110744.71    -96.28999    209028.76  0.050998128 
   53000    292.27155   -111561.98   -110747.41      99.1346    208850.62  0.051041628 
   53100    298.01205   -111576.85   -110746.28   -104.86646    208665.89  0.051086812 
   53200    287.36997   -111543.09   -110742.17    111.59583    208472.31  0.051134251 
   53300    291.63113   -111546.08   -110733.29    18.755068    208271.95  0.051183441 
   53400    292.95581   -111534.86   -110718.37    222.13809    208090.67  0.051228031 
   53500    290.29448    -111511.7   -110702.63   -92.698192     207954.1  0.051261675 
   53600    300.77077   -111526.86   -110688.59   -67.943885    207841.19  0.051289522 
   53700    295.34536   -111498.96   -110675.81    395.10595     207715.5  0.051320558 
   53800    302.57352   -111510.86   -110667.57   -62.989665    207581.16  0.051353771 
   53900    301.77345   -111502.62   -110661.56   -516.66891    207440.97  0.051388477 
   54000    299.44551   -111492.61   -110658.04    51.017183    207290.48  0.051425783 
   54100    298.43655   -111488.86    -110657.1   -209.16795    207197.25  0.051448924 
   54200    307.87565   -111514.12   -110656.05   -414.40759    207137.23   0.05146383 
   54300    291.85513   -111468.15   -110654.74   -248.29919    207087.03  0.051476306 
   54400    301.72992   -111495.04    -110654.1    194.38319    207041.64  0.051487592 
   54500    301.24718   -111493.49    -110653.9   -129.73391     206979.5  0.051503049 
   54600    307.96993    -111514.6   -110656.27   -171.80253    206870.25  0.051530248 
   54700    307.16425    -111517.4   -110661.32    18.960671    206729.39  0.051565361 
   54800    295.64983   -111493.03   -110669.04   -153.55957    206592.86  0.051599437 
   54900    303.93135    -111526.2   -110679.12    2.5659857    206464.67  0.051631476 
   55000    292.95667   -111506.84   -110690.35    563.55698    206352.25  0.051659604 
   55100    296.61043   -111525.99   -110699.32   -129.14138    206269.15  0.051680415 
   55200    301.68638   -111548.17   -110707.35    198.61768    206193.88   0.05169928 
   55300    301.41875   -111553.39   -110713.32     86.15133    206117.42  0.051718459 
   55400    302.52529   -111560.93   -110717.78   -22.984716    206031.36  0.051740062 
   55500    280.60436   -111503.11   -110721.05   -153.46705    205934.65  0.051764359 
   55600    277.98999   -111497.19   -110722.41   -75.327484     205834.7  0.051789497 
   55700    282.71657   -111507.63   -110719.68    59.288082    205712.81  0.051820183 
   55800    287.43893   -111512.85   -110711.74    214.67042     205564.7  0.051857519 
   55900    298.57009   -111526.99   -110694.85    191.65976    205395.63  0.051900205 
   56000    297.76722   -111506.08   -110676.18    208.88587    205215.75  0.051945699 
   56100    301.19477   -111498.56   -110659.12    55.038762    205063.43  0.051984283 
   56200    312.96112   -111520.77   -110648.53    -21.91218    204906.01  0.052024219 
   56300    312.06188    -111512.1   -110642.36    209.40058    204714.23  0.052072956 
   56400    301.16011    -111478.9   -110639.55    251.99564    204486.23  0.052131019 
   56500    310.85423   -111505.75   -110639.38     179.5353    204241.01  0.052193609 
   56600    305.63332   -111492.38   -110640.56    348.98563    204003.46  0.052254385 
   56700    300.08574   -111478.81   -110642.46    -51.50707    203767.52   0.05231489 
   56800    290.77563   -111457.23   -110646.83    359.07975    203524.14  0.052377449 
   56900    308.56024   -111510.49   -110650.51    26.392861    203323.46  0.052429145 
   57000    303.93271   -111503.65   -110656.57   -134.31423    203134.09  0.052478022 
   57100     301.7112   -111508.78    -110667.9     119.2295     202927.2  0.052531524 
   57200    294.26111   -111501.62    -110681.5   -101.69184    202691.39  0.052592639 
   57300     311.3741   -111562.04   -110694.22   -174.60041    202436.17  0.052658945 
   57400     279.0209   -111484.11   -110706.47    326.97631    202175.28  0.052726897 
   57500    290.81119   -111522.84   -110712.34     309.2241    201908.85  0.052796475 
   57600    293.20345   -111531.32   -110714.14    172.70819    201680.49  0.052856256 
   57700    285.56267    -111510.2   -110714.32    73.270422    201461.87  0.052913612 
   57800    295.51225   -111535.23   -110711.62   -78.657215    201253.64  0.052968362 
   57900    299.48676   -111540.77   -110706.08   -193.37691     201067.3   0.05301745 
   58000    297.89705   -111530.38   -110700.13    676.39015    200895.21  0.053062866 
   58100    295.08456   -111517.25   -110694.83   -634.47312    200753.72  0.053100263 
   58200    295.98987   -111513.57   -110688.63     382.6955    200628.02  0.053133533 
   58300    302.93351   -111528.05   -110683.76    169.10288    200540.39  0.053156751 
   58400    288.69355   -111484.07   -110679.46    228.58243     200482.6  0.053172073 
   58500    298.84415   -111508.86   -110675.96    286.99001    200445.48   0.05318192 
   58600    298.40581   -111504.96   -110673.28   -411.52159    200420.67  0.053188503 
   58700     303.8244   -111517.08    -110670.3    247.47191    200387.88  0.053197207 
   58800    284.43778   -111462.46   -110669.72   -349.59548    200385.12  0.053197938 
   58900    307.93408    -111525.6   -110667.37    387.91924    200386.55  0.053197559 
   59000    298.43272   -111498.14   -110666.39    83.571917    200387.54  0.053197296 
   59100    303.79464   -111512.47   -110665.77    146.13681    200379.92   0.05319932 
   59200    299.87323   -111501.87   -110666.11   -515.59745    200363.51  0.053203677 
   59300    299.84977   -111502.95   -110667.25    -89.97997    200329.38  0.053212742 
   59400    307.91184   -111525.69   -110667.52    254.45126    200264.62  0.053229948 
   59500    307.01633   -111523.88    -110668.2   -32.069774    200192.51  0.053249122 
   59600    306.75809   -111525.56   -110670.61    249.55226    200127.96  0.053266296 
   59700    300.76084   -111512.09   -110673.85   -252.95995    200074.21  0.053280606 
   59800    304.12077   -111525.89   -110678.29   -9.8032068    200018.41   0.05329547 
   59900    282.20345   -111470.96   -110684.44    206.53774     199930.2  0.053318986 
   60000    297.63899   -111518.43   -110688.89    342.90926     199781.4  0.053358699 
   60100    308.56248   -111552.63   -110692.65   -11.522567    199579.99  0.053412546 
   60200    294.90093   -111517.77   -110695.86    -65.22818    199379.71    0.0534662 
   60300    286.18385   -111494.64   -110697.03   -20.526445    199192.47  0.053516457 
   60400    288.03187   -111500.83   -110698.07   -586.83758    199010.05  0.053565512 
   60500    301.25983   -111535.07   -110695.44    42.944873    198800.26  0.053622038 
   60600    298.83105   -111524.61   -110691.75   -85.986169    198567.58  0.053684874 
   60700    288.27703   -111489.68   -110686.24   -73.888037    198353.05  0.053742938 
   60800    299.93202   -111516.17   -110680.24   -45.440849    198131.91   0.05380292 
   60900    299.55469   -111507.29   -110672.41   -170.18267    197911.44  0.053862855 
   61000    284.64468   -111456.34   -110663.02    271.22248    197685.01  0.053924551 
   61100    293.42681   -111469.63   -110651.83    318.52192    197486.52  0.053978751 
   61200    306.09753    -111492.2   -110639.09   -359.35779    197297.59  0.054030438 
   61300    312.63851   -111499.03   -110627.69   -206.07672     197133.5  0.054075412 
   61400    309.95568   -111483.81   -110619.94    205.81929    196979.44  0.054117704 
   61500    304.21314   -111463.03   -110615.17    204.55538    196821.83  0.054161041 
   61600    306.89163   -111468.95   -110613.63   -130.09299    196664.88  0.054204266 
   61700    307.11272   -111470.49   -110614.55   -68.072521     196501.9  0.054249223 
   61800    312.17789   -111490.02   -110619.96   -264.79105    196331.98  0.054296174 
   61900    316.44788    -111509.1   -110627.14   -191.98539    196178.76  0.054338581 
   62000    302.52547   -111481.25   -110638.09    145.61954    196054.23  0.054373094 
   62100    294.64577   -111469.75   -110648.56   -328.28421    195933.45  0.054406612 
   62200    293.75318   -111475.73   -110657.02   -235.96069    195816.17    0.0544392 
   62300    303.89122   -111510.52   -110663.56    216.40493    195689.19  0.054474522 
   62400    303.63164   -111513.59   -110667.35    436.64582     195574.4  0.054506497 
   62500    305.70724   -111522.37   -110670.34   -105.93857    195486.83  0.054530915 
   62600    302.69425   -111516.01   -110672.39   -29.906386    195415.79  0.054550738 
   62700    300.19948   -111510.92   -110674.25    340.47807     195369.9  0.054563551 
   62800    300.01439   -111511.84   -110675.68   -306.34103     195355.9   0.05456746 
   62900    298.44467   -111509.75   -110677.97   -189.24722    195349.61  0.054569218 
   63000    295.22135   -111501.57   -110678.77    167.63133    195327.76  0.054575322 
   63100     300.0276   -111514.03   -110677.84   -362.91398    195271.15  0.054591144 
   63200    296.61581   -111504.62   -110677.94   -141.05781    195188.04  0.054614389 
   63300    299.89562   -111510.29   -110674.47    8.3297036    195072.06   0.05464686 
   63400    308.39451    -111529.9   -110670.39    416.31702    194956.09  0.054679367 
   63500    296.72152   -111492.24   -110665.26    120.74772    194847.53   0.05470983 
   63600    295.00923   -111480.72   -110658.52    527.15906    194722.71  0.054744901 
   63700    305.39731   -111500.76    -110649.6    -25.20773    194562.03   0.05479011 
   63800    308.89795   -111499.44   -110638.53   -38.901396    194370.49  0.054844105 
   63900    320.75152   -111521.28   -110627.33   -127.05507    194169.95  0.054900747 
   64000    308.78189   -111477.85   -110617.26   -256.67741    193966.63  0.054958296 
   64100    311.35365   -111476.94   -110609.18    35.758419    193777.25  0.055012006 
   64200    317.42655   -111490.16   -110605.48     95.09105    193633.03   0.05505298 
   64300     314.8335      -111482   -110604.54   -194.60796    193522.54  0.055084413 
   64400    300.75328   -111448.12   -110609.91    40.739698    193401.04  0.055119017 
   64500    300.46503   -111460.06   -110622.64    69.616348    193266.69  0.055157334 
   64600    304.28701   -111490.04   -110641.98    233.59259    193120.16  0.055199186 
   64700    314.60148   -111538.77   -110661.95    439.98488    192998.06  0.055234108 
   64800    297.00616   -111503.73   -110675.96    8.1237902    192911.78   0.05525881 
   64900    303.25283   -111528.77   -110683.58   -344.35301       192867  0.055271641 
   65000    293.13779   -111504.27   -110687.28    278.47789    192841.64  0.055278908 
   65100    290.81206   -111499.37   -110688.86   -110.48476    192826.42  0.055283272 
   65200    290.31296   -111498.37   -110689.25   -508.44304    192799.83  0.055290895 
   65300    292.90129   -111502.85   -110686.52   -58.400795    192773.33  0.055298496 
   65400    292.47124   -111498.59   -110683.45    293.27739    192747.79  0.055305823 
   65500    293.77921   -111496.46   -110677.68   -186.11669    192735.93  0.055309227 
   65600    311.88004   -111541.37   -110672.14   -44.257994    192743.73  0.055306989 
   65700    308.81257   -111525.51   -110664.83    141.08044    192751.26   0.05530483 
   65800    303.65927   -111504.62    -110658.3   -110.11363    192731.44  0.055310517 
   65900    301.08158   -111491.01   -110651.88   -101.90046    192712.22  0.055316033 
   66000    299.69007   -111482.15   -110646.89    537.50786     192710.1   0.05531664 
   66100    296.80544   -111469.09   -110641.88   -311.18594    192744.23  0.055306844 
   66200    304.31138   -111483.73   -110635.59    225.45524    192780.86  0.055296336 
   66300    306.17155   -111481.62    -110628.3    353.80373    192813.08  0.055287098 
   66400     301.7261   -111462.21   -110621.28    55.422196    192835.25   0.05528074 
   66500    313.19802   -111489.09   -110616.18    42.316053    192855.82  0.055274843 
   66600    304.42667   -111460.82   -110612.36    7.1746555    192856.66  0.055274603 
   66700    309.98283   -111473.92   -110609.98    151.87889    192835.28  0.055280733 
   66800    304.29526   -111458.33   -110610.24   -57.153469    192823.07  0.055284233 
   66900    305.05493   -111464.65   -110614.44    153.56662     192807.8  0.055288611 
   67000    302.23256    -111466.3   -110623.96   -88.596413    192787.56  0.055294415 
   67100    299.20835   -111470.72   -110636.81   -277.02022    192743.38   0.05530709 
   67200    301.58527   -111491.55   -110651.01    212.26791    192680.07  0.055325261 
   67300    300.36234    -111501.6   -110664.47   -144.65503    192602.06   0.05534767 
   67400    301.32679   -111516.26   -110676.44   -49.290156    192509.09  0.055374399 
   67500    308.70109   -111544.87    -110684.5   -22.135925    192396.93   0.05540668 
   67600    306.85397   -111544.15   -110688.93   -230.49581    192288.75  0.055437852 
   67700    286.42194   -111491.63   -110693.35   -153.92571    192178.18  0.055469748 
   67800    292.85241   -111510.77   -110694.57    319.34256    192057.72  0.055504539 
   67900    286.62083   -111492.52   -110693.69   -263.65462     191932.9  0.055540635 
   68000    306.89699   -111546.42   -110691.08     11.39979    191784.97  0.055583477 
   68100    290.10515   -111495.01   -110686.47    136.25819    191616.32  0.055632397 
   68200    285.66641   -111475.07    -110678.9   -176.64273    191424.35  0.055688188 
   68300    293.21578   -111486.21      -110669   -13.202632    191252.81  0.055738138 
   68400    306.58061   -111510.78   -110656.32   -7.7928192    191114.19  0.055778565 
   68500    294.36371   -111464.87   -110644.46    306.84222    190993.98  0.055813673 
   68600     303.0985   -111476.09   -110631.34    456.37719    190889.44  0.055844238 
   68700    312.71854   -111492.89   -110621.32   -16.311867    190759.09  0.055882397 
   68800    307.94909   -111471.63   -110613.36    218.99493     190590.8  0.055931741 
   68900    314.94725   -111485.57   -110607.79   -360.52632    190412.73  0.055984048 
   69000     314.9106   -111484.31   -110606.64     302.2992    190252.08  0.056031321 
   69100    311.35569   -111476.94   -110609.17   -166.05088    190117.62  0.056070949 
   69200    302.57962   -111457.34   -110614.04   -21.873093    189984.72  0.056110173 
   69300     307.4471   -111477.66   -110620.79   -16.072261     189863.6  0.056145967 
   69400    301.63847    -111468.1   -110627.42   -80.868826    189768.32  0.056174157 
   69500    308.34505   -111492.64   -110633.26     590.6875    189670.18  0.056203222 
   69600    313.87664   -111512.48   -110637.69    58.767609    189618.29  0.056218602 
   69700    297.85364   -111471.38   -110641.24    289.61013    189587.05  0.056227868 
   69800    305.09436   -111496.37   -110646.06    46.100747    189562.49  0.056235151 
   69900    308.02489   -111510.44   -110651.96   -166.97551    189530.91  0.056244521 
   70000    314.52896   -111536.04   -110659.43    77.340844    189501.67  0.056253199 
   70100    298.26893   -111498.32   -110667.03     419.7839    189468.03  0.056263189 
   70200    298.69191   -111507.66   -110675.19    23.145812    189445.89  0.056269764 
   70300    298.19288   -111513.91   -110682.83    226.43342    189425.92  0.056275695 
   70400    289.50502   -111497.38   -110690.52   -23.023811     189398.3  0.056283903 
   70500    296.32012   -111521.23   -110695.37   -512.16495    189379.12  0.056289604 
   70600     287.9663   -111502.09   -110699.51    244.44228    189357.44  0.056296047 
   70700    290.08771   -111509.66   -110701.17    174.63215     189335.2  0.056302661 
   70800    291.75015   -111514.32    -110701.2    23.510977    189312.33  0.056309461 
   70900    290.51789   -111508.89    -110699.2   -152.99058    189292.98  0.056315217 
   71000    295.89076   -111518.89   -110694.22   -36.147318     189244.1  0.056329764 
   71100    300.58722   -111523.02   -110685.26   -149.39331    189190.95   0.05634559 
   71200    305.40881    -111523.2   -110672.01    19.969316    189124.58  0.056365363 
   71300    305.20396   -111506.96   -110656.34    7.1438049    189026.66   0.05639456 
   71400    306.79213   -111495.64   -110640.59   -6.9915258    188929.48  0.056423569 
   71500    310.37033   -111493.38   -110628.36   -50.536984    188843.15  0.056449363 
   71600    292.38467   -111436.11   -110621.21   -468.84524       188757  0.056475125 
   71700    299.30746    -111451.6   -110617.41   -108.32642    188651.55  0.056506695 
   71800    305.00956   -111465.67   -110615.59    -382.3183    188540.11  0.056540093 
   71900    300.00777   -111452.87   -110616.73   -176.17067    188440.36  0.056570022 
   72000    299.05946   -111453.58   -110620.09    274.22083    188365.11  0.056592623 
   72100    302.34384   -111466.27   -110623.62   -111.67584    188323.73  0.056605055 
   72200    303.90841    -111476.6   -110629.59     -51.3296    188311.78  0.056608648 
   72300    296.39125   -111463.17   -110637.11    40.415641    188294.75  0.056613768 
   72400    312.90876   -111517.71   -110645.62   -115.30666    188245.26  0.056628651 
   72500     303.1337   -111500.26   -110655.41     41.48053    188196.77  0.056643242 
   72600    306.47828   -111517.87    -110663.7    326.68744     188193.1  0.056644346 
   72700    302.93146   -111514.29   -110670.01   -378.62365    188205.52  0.056640609 
   72800    296.27015   -111499.44   -110673.72     323.1825    188194.73  0.056643858 
   72900    291.06343   -111487.07   -110675.86   -37.800353    188186.14  0.056646442 
   73000    304.63409   -111525.75   -110676.72   -423.78711    188182.29  0.056647602 
   73100    295.14773   -111500.32   -110677.72    827.62714       188177  0.056649194 
   73200    308.45389   -111537.47   -110677.79   -159.64299    188173.24  0.056650326 
   73300    307.40018   -111537.45   -110680.71    346.42925    188166.21  0.056652442 
   73400    295.45396   -111506.51   -110683.06   -100.92536    188140.69  0.056660126 
   73500    298.24966   -111515.28   -110684.04    201.85242    188129.37  0.056663536 
   73600     293.3244   -111501.85   -110684.34   -786.99209    188113.97  0.056668175 
   73700    304.35464   -111533.09   -110684.83    522.90684    188050.91  0.056687178 
   73800    301.23692   -111523.01   -110683.45   -398.40619    187981.69   0.05670805 
   73900    288.46742   -111485.01   -110681.04   -336.25355    187913.78  0.056728545 
   74000    308.77155   -111536.57   -110676.01    113.47107    187876.54  0.056739789 
   74100    303.09363   -111512.51   -110667.77   -304.15746    187848.35  0.056748305 
   74200    305.48554   -111507.36   -110655.95    427.86693    187828.58  0.056754277 
   74300    310.75792    -111508.1      -110642    233.07314    187827.76  0.056754525 
   74400    306.32282   -111480.63   -110626.89    89.949647    187867.12  0.056742634 
   74500    311.78038   -111483.72   -110614.77    388.80028    187890.69  0.056735518 
   74600    305.97935   -111460.21   -110607.43    35.888533    187882.36  0.056738032 
   74700    306.26949    -111457.8   -110604.21   -166.80873    187870.87  0.056741502 
   74800    317.60937   -111490.53   -110605.34    434.50688    187856.04  0.056745982 
   74900     310.5414   -111474.15   -110608.65    156.22608    187837.41  0.056751611 
   75000    324.42741   -111518.76   -110614.57    93.754997    187803.44  0.056761876 
   75100    299.47958   -111462.06   -110627.39   -575.63263    187776.81  0.056769923 
   75200    303.31714   -111491.51   -110646.15    16.563811    187752.72  0.056777208 
   75300    300.11161   -111500.27   -110663.84   -494.18145    187719.45  0.056787272 
   75400    307.10352   -111532.61   -110676.69   -16.634108    187662.68   0.05680445 
   75500    304.37284   -111531.81    -110683.5     63.06893    187606.73  0.056821392 
   75600    305.86371   -111539.89   -110687.43    553.19305    187562.05  0.056834926 
   75700    292.44442   -111504.94   -110689.88    -590.8824    187533.86  0.056843469 
   75800    294.81838   -111511.72   -110690.05   -323.47741    187482.33  0.056859094 
   75900    293.32895   -111506.57   -110689.05   -60.473105    187425.92  0.056876206 
   76000    301.63347   -111525.31   -110684.64    7.3800926    187402.96  0.056883176 
   76100    285.68547   -111477.55   -110681.33   -232.52547    187383.56  0.056889064 
   76200    298.75729   -111507.98   -110675.33   -634.93453    187356.16  0.056897384 
   76300    293.88636   -111488.62   -110669.54   -208.79503    187313.76  0.056910263 
   76400     305.6542   -111515.06   -110663.18   -89.528598    187277.99  0.056921132 
   76500    316.16021   -111537.92   -110656.76    23.164475    187257.42  0.056927384 
   76600    303.80835   -111496.01   -110649.28    206.18545    187248.17  0.056930198 
   76700    304.78889   -111494.23   -110644.76    332.62585    187216.38  0.056939866 
   76800    300.05801   -111476.45   -110640.17    188.40789    187166.61  0.056955006 
   76900    305.45011   -111488.68   -110637.37   -111.20272    187101.47  0.056974836 
   77000    303.30151   -111481.18   -110635.86    77.650334    187056.67  0.056988479 
   77100    301.39201   -111477.08   -110637.08    60.320646    187042.62  0.056992762 
   77200    311.56561   -111510.16   -110641.81   -107.72802    187025.28  0.056998044 
   77300    305.68824   -111501.72   -110649.75    189.34434    186959.62  0.057018064 
   77400    299.39379   -111494.31   -110659.88    298.09721    186885.39  0.057040709 
   77500     292.0262   -111485.62   -110671.73   -409.35529    186808.97  0.057064044 
   77600    290.92409   -111493.29   -110682.47    365.24053    186700.89  0.057097078 
   77700    305.39616   -111543.22   -110692.06   -345.48608     186587.6  0.057131745 
   77800    287.27562    -111501.3   -110700.65   -35.303165    186476.94   0.05716565 
   77900    299.24763    -111539.4   -110705.38    247.49673    186352.02  0.057203971 
   78000    301.25075   -111549.66   -110710.06   -310.98434    186209.43  0.057247773 
   78100    302.71622   -111557.32   -110713.63    68.941489    186074.49   0.05728929 
   78200    288.10862    -111519.8   -110716.83   -419.77196    185958.07  0.057325156 
   78300    300.43051   -111555.79   -110718.47    133.15507    185861.42  0.057354967 
   78400      294.768   -111539.63    -110718.1   -356.67819    185820.98  0.057367447 
   78500    294.35561   -111535.68   -110715.29     -107.195    185807.26  0.057371684 
   78600    299.13778   -111543.22   -110709.51     216.8017    185818.55  0.057368197 
   78700    285.49807   -111492.35   -110696.65   -314.06465    185839.68  0.057361675 
   78800    302.35949   -111520.82   -110678.13    20.392036    185855.45  0.057356809 
   78900    301.08456    -111498.3   -110659.16    282.12971    185839.95  0.057361591 
   79000    303.71094   -111492.07   -110645.61   -327.43868     185819.6  0.057367875 
   79100    307.44665   -111493.93   -110637.05   -186.65417    185806.72   0.05737185 
   79200    304.06703   -111480.52   -110633.07   -161.55235    185803.39   0.05737288 
   79300    315.76053   -111513.76   -110633.72     193.0839    185830.76  0.057364428 
   79400    308.74664   -111497.78   -110637.29    77.128207    185861.33  0.057354993 
   79500    305.96494   -111495.84    -110643.1   -196.40763    185905.78  0.057341281 
   79600    304.85164   -111500.19   -110650.55    23.917692    185931.23   0.05733343 
   79700    302.56846   -111502.83   -110659.56    86.994529    185944.84  0.057329234 
   79800    295.11837   -111490.91    -110668.4    -45.36952     185973.6   0.05732037 
   79900    310.81791    -111544.4   -110678.13    388.87143    186017.12  0.057306958 
   80000    297.49846   -111515.53   -110686.38   -32.927831    186075.51  0.057288975 
   80100    295.23446   -111514.56   -110691.73   -28.214205    186103.58  0.057280336 
   80200    290.65898   -111505.08      -110695   -90.553963    186102.22  0.057280754 
   80300    294.27881   -111516.74   -110696.56     72.41451    186071.36  0.057290254 
   80400    296.59603   -111524.44   -110697.81   -141.97795    186016.42  0.057307173 
   80500    290.99201   -111507.53   -110696.52   -271.98907    185922.25  0.057336199 
   80600    293.32761   -111512.16   -110694.64    374.93436    185812.21  0.057370156 
   80700    295.09924   -111512.39   -110689.93    266.30522    185713.08  0.057400778 
   80800    304.92364   -111535.07   -110685.23    453.52952    185619.08  0.057429847 
   80900    306.06393   -111533.22    -110680.2    69.918394    185502.11  0.057466059 
   81000    294.31224   -111492.03   -110671.76    238.30258    185375.67  0.057505256 
   81100    291.24079   -111473.89   -110662.19  -0.97290193    185252.05  0.057543631 
   81200    301.93331   -111484.94   -110643.44   -5.8538256    185141.28  0.057578057 
   81300    312.90945   -111489.36   -110617.26   -325.81163    185051.06   0.05760613 
   81400    312.58133   -111465.94   -110594.75   -279.92032    184960.03   0.05763448 
   81500    320.89971   -111479.68   -110585.32   -34.469042     184880.2  0.057659367 
   81600     315.2665   -111462.37    -110583.7   -85.067222     184808.6  0.057681706 
   81700    326.99554   -111499.17   -110587.81   -106.87527    184725.05  0.057707796 
   81800    307.87056   -111454.47   -110596.42    265.58166    184649.08  0.057731539 
   81900    313.89315   -111484.35   -110609.51   -61.410506    184582.77  0.057752276 
   82000    311.41959   -111492.49   -110624.55   -156.24447    184557.14  0.057760297 
   82100     306.2279   -111491.09   -110637.61   -185.28283       184562  0.057758776 
   82200    312.28108   -111520.67   -110650.32   -270.06728    184567.79  0.057756964 
   82300    298.15177   -111492.14   -110661.17   -51.552704    184550.19  0.057762473 
   82400    297.27616    -111498.4   -110669.87   -83.714237    184520.38  0.057771805 
   82500    296.23487   -111501.96   -110676.33    577.20295    184493.35  0.057780268 
   82600    305.50587   -111532.33   -110680.87   -886.48275    184478.52  0.057784915 
   82700    303.30746      -111530   -110684.67    196.43032    184446.71   0.05779488 
   82800    300.24384    -111523.4    -110686.6    -123.9439    184419.19  0.057803502 
   82900    290.86853   -111498.91   -110688.25     167.9329    184370.52  0.057818764 
   83000     291.5366   -111503.11   -110690.58    -211.2124    184288.62  0.057844459 
   83100    304.15023   -111538.58    -110690.9   -106.50496    184187.74   0.05787614 
   83200    300.77474   -111527.99   -110689.71    67.979803    184078.05  0.057910629 
   83300    311.86874   -111556.57   -110687.38    22.486938    183971.04  0.057944311 
   83400    293.14949    -111501.5   -110684.47   -90.402983    183860.31  0.057979209 
   83500    296.51384   -111507.96   -110681.56   -150.65767    183745.31  0.058015497 
   83600    292.79067    -111492.2   -110676.17   -18.930242    183613.96  0.058056999 
   83700    298.15828   -111500.91   -110669.92   -176.19336    183508.25  0.058090443 
   83800    301.19634   -111499.78   -110660.33     767.8755    183422.36  0.058117644 
   83900    285.44808   -111444.89   -110649.33     615.3654    183376.84  0.058132069 
   84000    319.81321   -111528.65   -110637.32   -47.400192    183374.44   0.05813283 
   84100    309.83289   -111490.78   -110627.26   -455.22736     183389.7  0.058127994 
   84200    309.89135   -111485.63   -110621.94   -242.76606    183396.62  0.058125801 
   84300    304.73116   -111468.14   -110618.84   -192.39224    183395.12  0.058126274 
   84400    314.47131   -111494.68   -110618.23    139.31289    183373.15  0.058133239 
   84500    299.43246   -111455.41   -110620.88    348.12626    183330.52  0.058146758 
   84600    305.26847   -111477.59   -110626.79   -103.10504    183273.92  0.058164714 
   84700    299.35974   -111470.85   -110636.52    -173.9803    183232.85  0.058177753 
   84800    299.67289   -111486.61    -110651.4    217.72491    183226.51  0.058179766 
   84900     292.3111   -111482.19    -110667.5    5.2113229    183231.31  0.058178241 
   85000    298.95031   -111515.17   -110681.98    253.57379    183198.05  0.058188805 
   85100    292.12128    -111506.9   -110692.74   -121.28039    183150.19  0.058204011 
   85200    297.78194   -111527.22   -110697.28   -85.991763    183065.99   0.05823078 
   85300    296.69911    -111527.7   -110700.79   -136.96534    182965.75  0.058262683 
   85400    299.34838   -111535.59   -110701.29   -464.14637    182846.51  0.058300676 
   85500    308.75195   -111560.79   -110700.28    368.53899     182719.1  0.058341331 
   85600    298.00104   -111528.74   -110698.19   -96.234639    182597.98  0.058380028 
   85700    293.77912   -111513.86   -110695.08    95.861234    182466.52  0.058422091 
   85800    287.19532   -111490.37   -110689.94   -372.11437    182350.86  0.058459144 
   85900    294.56913    -111505.4   -110684.42   -184.20668    182237.31   0.05849557 
   86000    290.20196   -111486.44   -110677.64    350.12934    182134.31  0.058528649 
   86100    310.33709   -111534.62    -110669.7   -239.20846    182036.74  0.058560022 
   86200    296.50486   -111487.84   -110661.46    20.807026    181910.28  0.058600732 
   86300    307.82714   -111511.19   -110653.26    699.62397    181767.77  0.058646676 
   86400    304.25393   -111494.13   -110646.16   -12.926269     181626.9  0.058692162 
   86500    310.86192   -111509.27   -110642.88    426.57996    181497.58   0.05873398 
   86600    307.47711   -111497.99   -110641.04   -326.78181    181363.72   0.05877733 
   86700    298.69204   -111472.88   -110640.41   -101.89197    181219.21  0.058824203 
   86800    299.31627   -111473.02   -110638.81    99.096741    181057.13   0.05887686 
   86900    298.48852    -111469.1   -110637.19    446.75926    180882.85  0.058933588 
   87000    310.59116   -111500.97   -110635.33   -62.664601    180737.78   0.05898089 
   87100    307.37194   -111491.71   -110635.05    136.21385    180617.52  0.059020162 
   87200    308.19669   -111498.21   -110639.25    -469.4915    180508.97  0.059055654 
   87300    308.84857   -111507.54   -110646.76     234.9004    180394.99  0.059092967 
   87400    307.40201   -111513.01   -110656.27    641.64566    180294.69  0.059125841 
   87500    300.26096    -111504.1   -110667.25    285.73659    180198.82  0.059157298 
   87600    300.48412   -111514.97    -110677.5    152.99192    180104.22  0.059188371 
   87700     293.3397   -111503.66    -110686.1    604.02965    180014.91  0.059217737 
   87800    294.22922    -111513.1   -110693.07    219.58397    179969.58   0.05923265 
   87900    291.73787   -111512.08   -110698.99   -67.948341    179961.74  0.059235231 
   88000    293.44658   -111521.11   -110703.26    205.47967    179966.24  0.059233749 
   88100    302.89677   -111551.61   -110707.42   -51.951015    179937.32   0.05924327 
   88200    296.00109   -111534.63   -110709.66   -396.85431    179850.44  0.059271888 
   88300    302.42376   -111553.96   -110711.09    73.585693    179733.18  0.059310559 
   88400    293.27947   -111526.61   -110709.22   -581.75695    179607.58  0.059352034 
   88500    283.87467   -111496.78    -110705.6   -108.85723    179497.49  0.059388436 
   88600    300.59892   -111535.83   -110698.04   -312.70483    179395.26   0.05942228 
   88700    293.63937   -111505.21   -110686.82   -253.64553    179282.53  0.059459644 
[...]
  978700    302.31174   -111682.61   -110840.05   -7685.6964    9831.8734    1.0842364 
  978800    295.35098   -111678.94   -110855.78   -577.81128    9830.6615    1.0843701 
  978900    293.53551   -111683.98   -110865.88   -8906.6331    9829.3993    1.0845093 
  979000    286.66012   -111669.34   -110870.41     7949.474    9829.1122     1.084541 
  979100    282.60661   -111659.81   -110872.17   -10152.035    9829.2802    1.0845225 
  979200    289.32979   -111677.49   -110871.11    406.76207    9827.6044    1.0847074 
  979300    297.05134   -111695.87   -110867.97   -1676.2169    9825.6619    1.0849219 
  979400    297.08836   -111689.69   -110861.69   -13349.922    9823.5935    1.0851503 
  979500    292.56614   -111670.91   -110855.51    3861.3232    9821.4298    1.0853894 
  979600    288.87451    -111652.6   -110847.49   -4196.2606    9820.0175    1.0855455 
  979700    290.32929   -111648.26   -110839.09   -9559.8764    9820.0349    1.0855435 
  979800    297.73566    -111658.9   -110829.09    324.61779    9820.4987    1.0854923 
  979900    301.34666   -111659.27    -110819.4   -5895.5853    9821.3181    1.0854017 
  980000    307.57388   -111667.34   -110810.12    -1852.382    9822.1344    1.0853115 
  980100    306.70135   -111659.36   -110804.56    642.85635    9822.8144    1.0852364 
  980200    301.45572   -111640.81   -110800.64   -2090.3226    9824.4626    1.0850543 
  980300    306.81331    -111654.1   -110798.99     3142.609    9828.1327    1.0846491 
  980400    301.34232   -111638.65    -110798.8    -5677.216    9833.8605    1.0840173 
  980500     301.2522   -111639.48   -110799.87    657.31829    9841.2027    1.0832086 
  980600    306.41813   -111656.64   -110802.64    8585.4758    9849.1744    1.0823319 
  980700    303.46191   -111650.43   -110804.66   -7917.0503     9857.495    1.0814183 
  980800    293.91007   -111624.92   -110805.77   -8113.7833    9865.6436    1.0805251 
  980900    292.27815   -111621.43   -110806.84   -3020.9714    9872.6921    1.0797536 
  981000    305.71365   -111658.36   -110806.32   -2528.7179     9878.696    1.0790974 
  981100    293.64345   -111625.74   -110807.34   -2279.5021    9885.1879    1.0783887 
  981200    298.92573   -111641.66   -110808.54   -773.67866    9892.1585    1.0776288 
  981300    291.47701   -111622.46   -110810.09   -1601.1972    9898.6171    1.0769257 
  981400    302.02736   -111654.76      -110813    1984.3522    9903.6607    1.0763773 
  981500    299.79926   -111650.75   -110815.19   -548.40355    9906.7165    1.0760453 
  981600    304.32461    -111665.5   -110817.33   -2675.0794    9909.2346    1.0757718 
  981700    293.07871   -111638.52   -110821.69   -6850.9145    9913.0002    1.0753632 
  981800    299.95024   -111661.96   -110825.98   -2441.8596    9918.0147    1.0748195 
  981900    309.71551   -111698.22   -110835.03    1081.4245    9921.9848    1.0743894 
  982000    303.11797   -111693.69   -110848.89    521.65276    9924.9666    1.0740666 
  982100    287.88527   -111668.72   -110866.36   -4860.1501    9927.8083    1.0737592 
  982200    294.88226   -111702.19   -110880.33    6170.3558    9929.6138    1.0735639 
  982300    285.74498   -111686.66   -110890.27    5509.0031    9930.6152    1.0734557 
  982400    295.65002   -111719.32   -110895.33    10901.502    9930.8374    1.0734317 
  982500    291.40789   -111708.45   -110896.27    888.01659    9930.7192    1.0734444 
  982600    284.43852   -111686.34   -110893.59    12378.164    9928.8391    1.0736477 
  982700    291.31399   -111699.85   -110887.94    4028.3831    9926.5561    1.0738946 
  982800    300.46474    -111717.5   -110880.09   -3143.1501    9923.4484    1.0742309 
  982900    297.22344   -111698.24   -110869.86    7149.1904    9918.9915    1.0747136 
  983000    300.78074   -111696.98   -110858.68   -4365.4913    9913.6005    1.0752981 
  983100    290.74662   -111656.84   -110846.52    6414.9867    9906.9567    1.0760192 
  983200    286.69835    -111635.6   -110836.56    2706.7062    9899.5249     1.076827 
  983300    296.65718   -111655.35   -110828.55     7801.038    9890.0795    1.0778554 
  983400    293.02706   -111639.65   -110822.97   -3555.8813    9881.1725     1.078827 
  983500    299.39537   -111651.86   -110817.43   -2645.5536    9872.2864     1.079798 
  983600    293.88057   -111633.26    -110814.2     4082.415    9862.4214    1.0808781 
  983700    301.10803   -111649.74   -110810.53   -8388.9308    9851.4086    1.0820864 
  983800    298.46161   -111639.08   -110807.25     7543.596    9840.3918    1.0832979 
  983900    305.19796   -111655.29   -110804.69   -2944.9618    9830.8633    1.0843478 
  984000    305.08706   -111653.87   -110803.58   -5867.8009    9821.9219     1.085335 
  984100    298.19355    -111637.7   -110806.62     3464.363    9810.9919    1.0865441 
  984200    299.02019   -111641.32   -110807.93   -8498.5653    9797.0466    1.0880907 
  984300    307.63487   -111667.84   -110810.44    2832.1675    9782.7335    1.0896827 
  984400    308.56527   -111674.85   -110814.86    2103.9533    9769.2163    1.0911904 
  984500    314.74414   -111701.44   -110824.23    -9197.799    9756.0873    1.0926589 
  984600    303.09825   -111683.74   -110838.99   -1022.6503    9742.3785    1.0941964 
  984700     300.7389   -111692.22   -110854.05   -559.48969    9726.4345      1.09599 
  984800     293.2952    -111685.4   -110867.97    5912.8081     9708.652    1.0979975 
  984900    301.65749    -111717.9   -110877.16    9916.7624    9691.1851    1.0999765 
  985000    292.32118   -111696.53   -110881.81   -4443.6591    9677.0225    1.1015863 
  985100    290.10062   -111691.35   -110882.82   -2344.2108    9664.7314    1.1029872 
  985200    279.01104   -111656.98   -110879.36     6416.092    9653.9956    1.1042138 
  985300    294.70311   -111694.42   -110873.07    806.49214    9644.2006    1.1053353 
  985400    299.94552   -111702.81   -110866.85    8340.2043    9634.1725    1.1064858 
  985500    299.41452   -111694.67   -110860.18    14835.875    9625.3518    1.1074998 
  985600     299.6494   -111690.03   -110854.89     262.8549    9617.9324    1.1083542 
  985700     301.6819   -111690.26   -110849.45   -9063.6795    9612.1825    1.1090172 
  985800    298.12412   -111676.09    -110845.2   -3116.5569    9607.2563    1.1095858 
  985900    303.30084   -111686.53   -110841.21    6899.4796    9603.8057    1.1099845 
  986000    290.27323   -111647.71   -110838.71    12030.214    9600.8887    1.1103217 
  986100    295.10875   -111660.18    -110837.7    2795.6048    9599.6344    1.1104668 
  986200    297.59866   -111667.69   -110838.26    5040.5279    9598.7181    1.1105728 
  986300    304.39085   -111685.97   -110837.61    -4713.497    9599.5094    1.1104813 
  986400     297.6014   -111667.04   -110837.61    3888.1374    9601.5698     1.110243 
  986500    301.88819   -111679.12   -110837.74    4206.6304    9604.2801    1.1099297 
  986600    307.91146   -111698.36   -110840.19   -1871.6326    9607.3828    1.1095712 
  986700    304.96041   -111692.84    -110842.9   -2390.6031    9611.3234    1.1091163 
  986800    299.27026   -111679.62   -110845.54   -8259.7431    9615.5239    1.1086318 
  986900    299.42092   -111681.83   -110847.33   -5795.3555    9619.4607    1.1081781 
  987000    302.27561   -111691.02   -110848.57   -1756.9741    9623.7219    1.1076874 
  987100    288.67726   -111651.44   -110846.88    11092.845    9629.5794    1.1070136 
  987200    294.26518   -111666.01   -110845.87     1902.623    9636.7227     1.106193 
  987300    295.16178   -111666.62   -110843.99   -2422.2805    9645.1245    1.1052294 
  987400    296.25783   -111668.34   -110842.66   -134.53862    9653.1764    1.1043075 
  987500    309.22346   -111703.05   -110841.23    2077.4783     9662.333     1.103261 
  987600    292.03804   -111653.72    -110839.8   -1062.9173    9673.5481    1.1019819 
  987700    302.00763   -111680.73   -110839.02    5111.4391    9686.1576    1.1005474 
  987800    298.66534   -111669.44   -110837.04   -14289.148    9700.7437    1.0988926 
  987900    293.99256    -111655.3   -110835.93    594.49278      9714.64    1.0973207 
  988000    303.63144   -111680.15   -110833.91    176.56911    9727.9188    1.0958228 
  988100    310.94858   -111699.72   -110833.09    7972.6851    9741.0911     1.094341 
  988200    302.05154   -111674.95   -110833.12    -4569.615    9754.9035    1.0927915 
  988300    312.23391   -111703.04   -110832.82    1445.0097    9767.7635    1.0913527 
  988400    305.44186   -111685.92   -110834.64    9586.4948    9780.8887    1.0898882 
  988500    289.92612   -111645.94    -110837.9    1388.4713    9793.6347    1.0884698 
  988600     301.5019   -111683.26   -110842.96     2127.995    9805.0025    1.0872078 
  988700    310.29403   -111714.96   -110850.15   -1469.5257    9815.5402    1.0860406 
  988800    298.20914   -111691.68   -110860.55   -8665.5149    9826.4482     1.084835 
  988900    288.12197   -111674.09   -110871.08   -5866.9547    9838.1301    1.0835469 
  989000    280.04207   -111662.33   -110881.84    4218.5621    9850.2216    1.0822168 
  989100    289.50113    -111696.1   -110889.25    3804.6955     9863.377    1.0807734 
  989200    295.13947   -111717.01   -110894.44    5326.3377    9875.4802    1.0794488 
  989300    296.51843   -111722.46   -110896.05   -4849.8702    9887.5789     1.078128 
  989400    291.76439      -111706   -110892.84   -4590.7473    9898.8944    1.0768955 
  989500    291.22805    -111696.4   -110884.74    5724.2345    9908.5658    1.0758444 
  989600    291.84568   -111684.11   -110870.72   -5516.5211    9917.1199    1.0749165 
  989700    297.43476   -111683.21   -110854.24   -1504.0901    9923.7509    1.0741982 
  989800    308.73036   -111699.64   -110839.19    1001.4468    9930.1061    1.0735107 
  989900    293.32544   -111645.24   -110827.72    9543.1492    9936.1161    1.0728614 
  990000    295.74131   -111643.85    -110819.6    5457.7533    9942.6952    1.0721515 
  990100    299.94796   -111649.63   -110813.65    3173.1555    9949.5366    1.0714143 
  990200    305.32106   -111659.28   -110808.33     -6457.32    9955.3017    1.0707938 
  990300    305.93433   -111660.08   -110807.43    389.26259    9960.0166    1.0702869 
  990400    297.66552    -111637.3   -110807.69   -1956.8878     9965.569    1.0696906 
  990500     296.3213   -111634.17    -110808.3    2666.2084    9972.6783     1.068928 
  990600    305.90601   -111659.51   -110806.93   -1155.2943    9980.8273    1.0680553 
  990700    302.17551   -111647.74   -110805.55    1317.0857    9989.5661     1.067121 
  990800    299.12595   -111639.02   -110805.34   -12307.782    9998.9788    1.0661164 
  990900    309.03341   -111666.52   -110805.23    9292.9886    10006.077    1.0653601 
  991000    298.62746   -111638.74   -110806.45   -4407.1779      10011.5    1.0647831 
  991100    302.30269   -111653.79   -110811.26   -6789.0268    10016.165    1.0642872 
  991200    286.52111   -111617.28   -110818.73    2132.1085    10020.878    1.0637866 
  991300    299.06549   -111661.51      -110828   -3545.2183    10025.158    1.0633324 
  991400    283.92684   -111631.52    -110840.2   -5709.1747    10030.229    1.0627948 
  991500    307.67544   -111710.42   -110852.91   -779.36193    10035.429    1.0622442 
  991600    293.02771   -111680.64   -110863.96   -11062.834     10040.51    1.0617066 
  991700    300.48353   -111709.01   -110871.55   -136.53327     10043.95     1.061343 
  991800    288.92603   -111682.16   -110876.91   -5001.4563     10045.74    1.0611539 
  991900    292.32649   -111694.23    -110879.5   -3344.0946    10044.903    1.0612422 
  992000    288.34604   -111682.73   -110879.09   -10643.485    10042.618    1.0614837 
  992100    288.84109   -111679.34   -110874.33   -5578.0071     10039.09    1.0618567 
  992200    287.48466    -111666.6   -110865.37   -256.66226    10033.873    1.0624089 
  992300    287.10795   -111651.74   -110851.55    4891.4317    10028.085    1.0630221 
  992400    303.85715   -111680.34   -110833.48   -6503.0946    10020.915    1.0637827 
  992500    302.75784   -111660.22   -110816.42   -11282.616    10011.321    1.0648021 
  992600    303.99993    -111653.7   -110806.43   -6859.6574    10000.114    1.0659954 
  992700    297.06718   -111628.25   -110800.31   -10212.478    9987.3316    1.0673597 
  992800    307.76385   -111655.09   -110797.33   -2478.2725    9974.3826    1.0687454 
  992900    299.28903   -111629.72   -110795.59   -9575.1313    9961.9136    1.0700831 
  993000    302.48107   -111638.36   -110795.33   -8328.8511    9948.3888    1.0715379 
  993100    302.89806   -111641.06   -110796.87   -1343.7067    9934.0878    1.0730804 
  993200    312.51009   -111671.52   -110800.54    -4124.229    9921.9369    1.0743946 
  993300    305.54924   -111656.51   -110804.93    4933.9482    9910.6092    1.0756226 
  993400    310.47519      -111677   -110811.69   -2821.1714    9899.0727    1.0768762 
  993500    295.29483   -111643.21   -110820.21    392.13365    9885.2208    1.0783852 
  993600    300.38191   -111665.46   -110828.28    851.69326    9868.6193    1.0801993 
  993700    298.05889   -111667.07   -110836.36    3002.2899    9851.8805    1.0820346 
  993800    302.12995   -111685.29   -110843.24    12810.365    9837.3197    1.0836362 
  993900    296.86207   -111677.77    -110850.4   -3991.2505    9825.1928    1.0849737 
  994000    306.14736    -111710.8   -110857.55    2652.1262    9812.6071    1.0863652 
  994100    299.89499   -111700.41   -110864.59    2510.1941    9799.5425    1.0878136 
  994200    302.65479   -111717.61   -110874.09     3328.476    9786.6353    1.0892483 
  994300    303.44204   -111729.19   -110883.48    5222.1701    9775.0787     1.090536 
  994400    291.08232   -111707.01   -110895.74   -2061.8035    9764.1873    1.0917524 
  994500    283.77606   -111699.19   -110908.29   -6620.9217     9752.972    1.0930079 
  994600    296.13238   -111744.66   -110919.32    4444.2464    9740.9064    1.0943618 
  994700    277.13387   -111700.62   -110928.23   -1172.6165    9729.8052    1.0956104 
  994800    276.87996   -111704.33   -110932.65    812.89198    9719.2868    1.0967961 
  994900    276.96366    -111703.7   -110931.79   -7830.5778    9708.7441    1.0979871 
  995000    285.29175   -111716.85   -110921.72   -7387.4368    9698.2167    1.0991789 
  995100    288.08079   -111703.72   -110900.82   -1078.7807    9687.6029    1.1003832 
  995200     297.6661   -111706.01   -110876.39    2803.6966    9676.9756    1.1015916 
  995300    290.70113   -111668.87   -110858.67     -7951.77    9666.8342    1.1027473 
  995400    303.42369   -111694.44   -110848.78    13477.871    9656.4983    1.1039276 
  995500    303.50618   -111688.25   -110842.36    -10644.25    9646.7601     1.105042 
  995600    296.56117   -111663.69   -110837.16    7028.3156     9639.116    1.1059184 
  995700    293.09809   -111648.12   -110831.23    4590.6677    9634.3617    1.1064641 
  995800    295.44949   -111650.26   -110826.83   -4131.9116    9631.2777    1.1068184 
  995900    307.96803   -111682.65   -110824.32    2097.1258    9627.4844    1.1072545 
  996000    313.39962   -111695.91   -110822.45   -8809.9878    9622.4436    1.1078345 
  996100    295.95387   -111646.12   -110821.28    5840.1252    9616.0441    1.1085718 
  996200    292.37719   -111637.45   -110822.57   -5035.0525    9610.2077     1.109245 
  996300    295.45139   -111647.17   -110823.73   -7050.5402    9605.1798    1.1098257 
  996400    310.83919   -111691.77   -110825.44    7867.3167    9600.1001    1.1104129 
  996500    302.76701   -111672.47   -110828.64    1540.2516    9595.0546    1.1109968 
  996600    303.93398   -111680.27   -110833.18   -1575.9895    9590.2981    1.1115479 
  996700    294.39221   -111659.59    -110839.1    12248.913    9585.6394    1.1120881 
  996800    301.35724   -111685.23   -110845.33    7144.2495    9581.1036    1.1126146 
  996900    300.26636    -111687.9   -110851.04    955.99536    9576.4408    1.1131563 
  997000     307.6917   -111713.67   -110856.12    6152.6585    9572.3092    1.1136368 
  997100    296.86985   -111688.44   -110861.05   -8215.2384    9568.8371    1.1140408 
  997200    297.52565    -111695.1   -110865.88    7848.1709    9565.0728    1.1144793 
  997300    298.30876   -111702.18   -110870.78    3810.4913    9561.7113    1.1148711 
  997400    295.69379   -111697.65   -110873.53   -4260.3564    9558.2857    1.1152706 
  997500    287.79441   -111677.45   -110875.36    5639.6718    9553.9783    1.1157734 
  997600     296.2647   -111700.82   -110875.11   -3272.0476     9550.814    1.1161431 
  997700    296.94221   -111699.86   -110872.26   -8834.6494    9548.8711    1.1163702 
  997800    298.65526   -111699.58   -110867.21    1002.7688    9546.7137    1.1166225 
  997900    297.33347   -111686.08   -110857.39   -5661.9404    9545.0118    1.1168216 
  998000     296.2935   -111671.71   -110845.93    3215.3981    9544.5515    1.1168755 
  998100    303.01675   -111677.07   -110832.55     2660.686    9546.6166    1.1166339 
  998200     293.1098   -111636.53   -110819.61    915.30557    9550.5694    1.1161717 
  998300    314.46407   -111686.17   -110809.74    -5068.638    9555.5857    1.1155858 
  998400    304.76486   -111653.16   -110803.76   -824.38023    9560.3437    1.1150306 
  998500    307.61884   -111658.19   -110800.84    -7298.405    9564.7112    1.1145214 
  998600    314.57645   -111676.33   -110799.59   -576.36912    9569.9828    1.1139075 
  998700    313.38546   -111672.73    -110799.3     13967.77    9576.8676    1.1131067 
  998800    303.04526   -111647.92   -110803.31    2409.5997    9584.4182    1.1122298 
  998900    302.71955   -111652.89   -110809.19     12551.19    9592.4426    1.1112994 
  999000     311.3105   -111682.91   -110815.27   -4764.3491    9600.4405    1.1103736 
  999100    295.38764      -111650   -110826.74    7511.5228    9608.7696    1.1094111 
  999200        295.6   -111665.97   -110842.12    6098.9942     9617.095    1.1084507 
  999300    289.11267   -111664.42   -110858.65    2517.3121    9625.5931    1.1074721 
  999400    301.48568   -111712.71   -110872.45   -2495.0218    9634.8621    1.1064066 
  999500    282.77007   -111668.65   -110880.55    3475.8845    9644.7735    1.1052696 
  999600    295.83396   -111706.64   -110882.14    7879.3008    9654.3953    1.1041681 
  999700    295.94806   -111705.98   -110881.16   -1002.2241    9663.3198    1.1031484 
  999800    284.60179   -111670.63   -110877.42   -2015.4621    9672.0283    1.1021551 
  999900    294.38875   -111693.64   -110873.16    2502.5854    9680.5579     1.101184 
 1000000    288.39625   -111672.23   -110868.45   -2574.6473    9689.8233     1.100131 
Loop time of 105780 on 1 procs for 1000000 steps with 936 atoms

Performance: 0.204 ns/day, 117.533 hours/ns, 9.454 timesteps/s
99.9% CPU use with 1 MPI tasks x no OpenMP threads

MPI task timing breakdown:
Section |  min time  |  avg time  |  max time  |%varavg| %total
---------------------------------------------------------------
Pair    | 87020      | 87020      | 87020      |   0.0 | 82.27
Neigh   | 365.84     | 365.84     | 365.84     |   0.0 |  0.35
Comm    | 22.71      | 22.71      | 22.71      |   0.0 |  0.02
Output  | 2.885      | 2.885      | 2.885      |   0.0 |  0.00
Modify  | 18367      | 18367      | 18367      |   0.0 | 17.36
Other   |            | 1.498      |            |       |  0.00

Nlocal:    936 ave 936 max 936 min
Histogram: 1 0 0 0 0 0 0 0 0 0
Nghost:    8515 ave 8515 max 8515 min
Histogram: 1 0 0 0 0 0 0 0 0 0
Neighs:    573276 ave 573276 max 573276 min
Histogram: 1 0 0 0 0 0 0 0 0 0

Total # of neighbors = 573276
Ave neighs/atom = 612.474
Neighbor list builds = 10000
Dangerous builds not checked

Please see the log.cite file for references relevant to this simulation

Total wall time: 29:23:00
